# vtk DataFile Version 2.0
Landlab output
ASCII
DATASET UNSTRUCTURED_GRID

POINTS 200 float
0.0 0.0 0.0
100.0 0.0 0.0
200.0 0.0 0.0
300.0 0.0 0.0
400.0 0.0 0.0
500.0 0.0 0.0
600.0 0.0 0.0
700.0 0.0 0.0
800.0 0.0 0.0
900.0 0.0 0.0
0.0 100.0 0.0
100.0 100.0 0.00029078072901498426
200.0 100.0 0.0005444819424110617
300.0 100.0 0.0007355316922625505
400.0 100.0 0.0008476049871048565
500.0 100.0 0.000869747058051993
600.0 100.0 0.0007940387545230246
700.0 100.0 0.0006158925219049109
800.0 100.0 0.0003404404551727753
900.0 100.0 0.0
0.0 200.0 0.0
100.0 200.0 0.00061083725456307
200.0 200.0 0.0011367948429176638
300.0 200.0 0.0017253453031364446
400.0 200.0 0.0019492662476266924
500.0 200.0 0.0019911580171927336
600.0 200.0 0.001835643423083186
700.0 200.0 0.0014706940755164178
800.0 200.0 0.0009035401949747105
900.0 200.0 0.0
0.0 300.0 0.0
100.0 300.0 0.0011748480674396331
200.0 300.0 0.0020008765060414674
300.0 300.0 0.002595490567564542
400.0 300.0 0.0029275643580084884
500.0 300.0 0.0031805335419570267
600.0 300.0 0.0029346581597912706
700.0 300.0 0.0023692742876488646
800.0 300.0 0.0014911110406979234
900.0 300.0 0.0
0.0 400.0 0.0
100.0 400.0 0.0017794355793977431
200.0 400.0 0.002933397109489508
300.0 400.0 0.003745121886621522
400.0 400.0 0.004182606388148898
500.0 400.0 0.004235143354854516
600.0 400.0 0.003883234209775479
700.0 400.0 0.0033006627082550625
800.0 400.0 0.002094972156463198
900.0 400.0 0.0
0.0 500.0 0.0
100.0 500.0 0.0024079344876284624
200.0 500.0 0.003909996688441282
300.0 500.0 0.0049524360782722
400.0 500.0 0.005500312737045801
500.0 500.0 0.005548178654598136
600.0 500.0 0.0050784914206819555
700.0 500.0 0.004063067538090013
800.0 500.0 0.0025138701182920342
900.0 500.0 0.0
0.0 600.0 0.0
100.0 600.0 0.003041623759053569
200.0 600.0 0.004899472441604307
300.0 600.0 0.006182631569109054
400.0 600.0 0.006850427699310642
500.0 600.0 0.006899269576604197
600.0 600.0 0.006311175578368605
700.0 600.0 0.005055406735435841
800.0 600.0 0.0031494474347887207
900.0 600.0 0.0
0.0 700.0 0.0
100.0 700.0 0.003471725422305919
200.0 700.0 0.005683121485491096
300.0 700.0 0.007407327307594093
400.0 700.0 0.008198622703101847
500.0 700.0 0.008254523487841985
600.0 700.0 0.007554039639318568
700.0 700.0 0.0060603297378282175
800.0 700.0 0.0037938457416607017
900.0 700.0 0.0
0.0 800.0 0.0
100.0 800.0 0.004100193164793353
200.0 800.0 0.006660257497568151
300.0 800.0 0.008417793722951029
400.0 800.0 0.009325605641064261
500.0 800.0 0.009585815074899945
600.0 800.0 0.00877558997673238
700.0 800.0 0.007050435045863649
800.0 800.0 0.004431024519706898
900.0 800.0 0.0
0.0 900.0 0.0
100.0 900.0 0.004725822200753892
200.0 900.0 0.00762875917097422
300.0 900.0 0.009610449147510063
400.0 900.0 0.010624333117724058
500.0 900.0 0.010680546766882949
600.0 900.0 0.009757955779998323
700.0 900.0 0.008006874386366998
800.0 900.0 0.005048536656532709
900.0 900.0 0.0
0.0 1000.0 0.0
100.0 1000.0 0.005333357003749275
200.0 1000.0 0.008564549143800546
300.0 1000.0 0.010760479863240613
400.0 1000.0 0.011874451858531388
500.0 1000.0 0.011924065808434874
600.0 1000.0 0.010890986230008897
700.0 1000.0 0.008722728280342658
800.0 1000.0 0.005442653595714803
900.0 1000.0 0.0
0.0 1100.0 0.0
100.0 1100.0 0.00589817464256975
200.0 1100.0 0.009424156445863764
300.0 1100.0 0.011814888164075403
400.0 1100.0 0.01302358760749705
500.0 1100.0 0.013073042506818773
600.0 1100.0 0.011944990472012189
700.0 1100.0 0.009581873750687628
800.0 1100.0 0.006007168427780284
900.0 1100.0 0.0
0.0 1200.0 0.0
100.0 1200.0 0.006196849972982975
200.0 1200.0 0.009961051842415207
300.0 1200.0 0.012707351690578498
400.0 1200.0 0.013993763855992549
500.0 1200.0 0.014049426338155485
600.0 1200.0 0.012853456799319157
700.0 1200.0 0.010337562593270512
800.0 1200.0 0.006518511012186656
900.0 1200.0 0.0
0.0 1300.0 0.0
100.0 1300.0 0.0066063172575102115
200.0 1300.0 0.01052792806499813
300.0 1300.0 0.013166831012357456
400.0 1300.0 0.014495020047631002
500.0 1300.0 0.014754032094083772
600.0 1300.0 0.01352157623216616
700.0 1300.0 0.010914599671792473
800.0 1300.0 0.006934839466106516
900.0 1300.0 0.0
0.0 1400.0 0.0
100.0 1400.0 0.006886567707606823
200.0 1400.0 0.010851398362152646
300.0 1400.0 0.013495836526421324
400.0 1400.0 0.014814740613311632
500.0 1400.0 0.014868258726234828
600.0 1400.0 0.013636450652192248
700.0 1400.0 0.011221542348046218
800.0 1400.0 0.0072040020862226325
900.0 1400.0 0.0
0.0 1500.0 0.0
100.0 1500.0 0.006962991190217687
200.0 1500.0 0.010800993723414826
300.0 1500.0 0.013332644522291012
400.0 1500.0 0.01458069371901813
500.0 1500.0 0.014624917602698488
600.0 1500.0 0.013449266432352915
700.0 1500.0 0.010942907336970968
800.0 1500.0 0.00706138769217483
900.0 1500.0 0.0
0.0 1600.0 0.0
100.0 1600.0 0.006718818021651624
200.0 1600.0 0.01017347457025175
300.0 1600.0 0.012426027417153259
400.0 1600.0 0.01352540313892011
500.0 1600.0 0.013564372726091973
600.0 1600.0 0.012528848808161842
700.0 1600.0 0.010298697880698666
800.0 1600.0 0.006805709669323955
900.0 1600.0 0.0
0.0 1700.0 0.0
100.0 1700.0 0.005804779432859576
200.0 1700.0 0.008510064726629546
300.0 1700.0 0.010455586467847285
400.0 1700.0 0.011301930617872187
500.0 1700.0 0.011337641885547364
600.0 1700.0 0.010549389063913015
700.0 1700.0 0.008823522827888801
800.0 1700.0 0.006083087504663531
900.0 1700.0 0.0
0.0 1800.0 0.0
100.0 1800.0 0.004520417957094872
200.0 1800.0 0.006039089744473048
300.0 1800.0 0.007011683606038031
400.0 1800.0 0.007481663406748253
500.0 1800.0 0.007705490139858089
600.0 1800.0 0.007273970413861731
700.0 1800.0 0.006313875833695422
800.0 1800.0 0.0047717319300572235
900.0 1800.0 0.0
0.0 1900.0 0.0
100.0 1900.0 0.0
200.0 1900.0 0.0
300.0 1900.0 0.0
400.0 1900.0 0.0
500.0 1900.0 0.0
600.0 1900.0 0.0
700.0 1900.0 0.0
800.0 1900.0 0.0
900.0 1900.0 0.0

CELLS 171 855
4 11 10 0 1
4 12 11 1 2
4 13 12 2 3
4 14 13 3 4
4 15 14 4 5
4 16 15 5 6
4 17 16 6 7
4 18 17 7 8
4 19 18 8 9
4 21 20 10 11
4 22 21 11 12
4 23 22 12 13
4 24 23 13 14
4 25 24 14 15
4 26 25 15 16
4 27 26 16 17
4 28 27 17 18
4 29 28 18 19
4 31 30 20 21
4 32 31 21 22
4 33 32 22 23
4 34 33 23 24
4 35 34 24 25
4 36 35 25 26
4 37 36 26 27
4 38 37 27 28
4 39 38 28 29
4 41 40 30 31
4 42 41 31 32
4 43 42 32 33
4 44 43 33 34
4 45 44 34 35
4 46 45 35 36
4 47 46 36 37
4 48 47 37 38
4 49 48 38 39
4 51 50 40 41
4 52 51 41 42
4 53 52 42 43
4 54 53 43 44
4 55 54 44 45
4 56 55 45 46
4 57 56 46 47
4 58 57 47 48
4 59 58 48 49
4 61 60 50 51
4 62 61 51 52
4 63 62 52 53
4 64 63 53 54
4 65 64 54 55
4 66 65 55 56
4 67 66 56 57
4 68 67 57 58
4 69 68 58 59
4 71 70 60 61
4 72 71 61 62
4 73 72 62 63
4 74 73 63 64
4 75 74 64 65
4 76 75 65 66
4 77 76 66 67
4 78 77 67 68
4 79 78 68 69
4 81 80 70 71
4 82 81 71 72
4 83 82 72 73
4 84 83 73 74
4 85 84 74 75
4 86 85 75 76
4 87 86 76 77
4 88 87 77 78
4 89 88 78 79
4 91 90 80 81
4 92 91 81 82
4 93 92 82 83
4 94 93 83 84
4 95 94 84 85
4 96 95 85 86
4 97 96 86 87
4 98 97 87 88
4 99 98 88 89
4 101 100 90 91
4 102 101 91 92
4 103 102 92 93
4 104 103 93 94
4 105 104 94 95
4 106 105 95 96
4 107 106 96 97
4 108 107 97 98
4 109 108 98 99
4 111 110 100 101
4 112 111 101 102
4 113 112 102 103
4 114 113 103 104
4 115 114 104 105
4 116 115 105 106
4 117 116 106 107
4 118 117 107 108
4 119 118 108 109
4 121 120 110 111
4 122 121 111 112
4 123 122 112 113
4 124 123 113 114
4 125 124 114 115
4 126 125 115 116
4 127 126 116 117
4 128 127 117 118
4 129 128 118 119
4 131 130 120 121
4 132 131 121 122
4 133 132 122 123
4 134 133 123 124
4 135 134 124 125
4 136 135 125 126
4 137 136 126 127
4 138 137 127 128
4 139 138 128 129
4 141 140 130 131
4 142 141 131 132
4 143 142 132 133
4 144 143 133 134
4 145 144 134 135
4 146 145 135 136
4 147 146 136 137
4 148 147 137 138
4 149 148 138 139
4 151 150 140 141
4 152 151 141 142
4 153 152 142 143
4 154 153 143 144
4 155 154 144 145
4 156 155 145 146
4 157 156 146 147
4 158 157 147 148
4 159 158 148 149
4 161 160 150 151
4 162 161 151 152
4 163 162 152 153
4 164 163 153 154
4 165 164 154 155
4 166 165 155 156
4 167 166 156 157
4 168 167 157 158
4 169 168 158 159
4 171 170 160 161
4 172 171 161 162
4 173 172 162 163
4 174 173 163 164
4 175 174 164 165
4 176 175 165 166
4 177 176 166 167
4 178 177 167 168
4 179 178 168 169
4 181 180 170 171
4 182 181 171 172
4 183 182 172 173
4 184 183 173 174
4 185 184 174 175
4 186 185 175 176
4 187 186 176 177
4 188 187 177 178
4 189 188 178 179
4 191 190 180 181
4 192 191 181 182
4 193 192 182 183
4 194 193 183 184
4 195 194 184 185
4 196 195 185 186
4 197 196 186 187
4 198 197 187 188
4 199 198 188 189

CELL_TYPES 171
9
9
9
9
9
9
9
9
9
9
9
9
9
9
9
9
9
9
9
9
9
9
9
9
9
9
9
9
9
9
9
9
9
9
9
9
9
9
9
9
9
9
9
9
9
9
9
9
9
9
9
9
9
9
9
9
9
9
9
9
9
9
9
9
9
9
9
9
9
9
9
9
9
9
9
9
9
9
9
9
9
9
9
9
9
9
9
9
9
9
9
9
9
9
9
9
9
9
9
9
9
9
9
9
9
9
9
9
9
9
9
9
9
9
9
9
9
9
9
9
9
9
9
9
9
9
9
9
9
9
9
9
9
9
9
9
9
9
9
9
9
9
9
9
9
9
9
9
9
9
9
9
9
9
9
9
9
9
9
9
9
9
9
9
9
9
9
9
9
9
9

POINT_DATA 200

SCALARS linear_diffusivity float 1
LOOKUP_TABLE default
50000.0
50000.0
50000.0
50000.0
50000.0
50000.0
50000.0
50000.0
50000.0
50000.0
50000.0
50000.0
50000.0
50000.0
50000.0
50000.0
50000.0
50000.0
50000.0
50000.0
50000.0
50000.0
50000.0
50000.0
50000.0
50000.0
50000.0
50000.0
50000.0
50000.0
50000.0
50000.0
50000.0
50000.0
50000.0
50000.0
50000.0
50000.0
50000.0
50000.0
50000.0
50000.0
50000.0
50000.0
50000.0
50000.0
50000.0
50000.0
50000.0
50000.0
50000.0
50000.0
50000.0
50000.0
50000.0
50000.0
50000.0
50000.0
50000.0
50000.0
50000.0
50000.0
50000.0
50000.0
50000.0
50000.0
50000.0
50000.0
50000.0
50000.0
50000.0
50000.0
50000.0
50000.0
50000.0
50000.0
50000.0
50000.0
50000.0
50000.0
50000.0
50000.0
50000.0
50000.0
50000.0
50000.0
50000.0
50000.0
50000.0
50000.0
50000.0
50000.0
50000.0
50000.0
50000.0
50000.0
50000.0
50000.0
50000.0
50000.0
50000.0
50000.0
50000.0
50000.0
50000.0
50000.0
50000.0
50000.0
50000.0
50000.0
50000.0
50000.0
50000.0
50000.0
50000.0
50000.0
50000.0
50000.0
50000.0
50000.0
50000.0
50000.0
50000.0
50000.0
50000.0
50000.0
50000.0
50000.0
50000.0
50000.0
50000.0
50000.0
50000.0
50000.0
50000.0
50000.0
50000.0
50000.0
50000.0
50000.0
50000.0
50000.0
50000.0
50000.0
50000.0
50000.0
50000.0
50000.0
50000.0
50000.0
50000.0
50000.0
50000.0
50000.0
50000.0
50000.0
50000.0
50000.0
50000.0
50000.0
50000.0
50000.0
50000.0
50000.0
50000.0
50000.0
50000.0
50000.0
50000.0
50000.0
50000.0
50000.0
50000.0
50000.0
50000.0
50000.0
50000.0
50000.0
50000.0
50000.0
50000.0
50000.0
50000.0
50000.0
50000.0
50000.0
50000.0
50000.0
50000.0
50000.0
50000.0
50000.0
50000.0
50000.0
50000.0
50000.0
50000.0
50000.0
50000.0
50000.0

SCALARS topographic__elevation float 1
LOOKUP_TABLE default
0.0
0.0
0.0
0.0
0.0
0.0
0.0
0.0
0.0
0.0
0.0
0.00029078072901498426
0.0005444819424110617
0.0007355316922625505
0.0008476049871048565
0.000869747058051993
0.0007940387545230246
0.0006158925219049109
0.0003404404551727753
0.0
0.0
0.00061083725456307
0.0011367948429176638
0.0017253453031364446
0.0019492662476266924
0.0019911580171927336
0.001835643423083186
0.0014706940755164178
0.0009035401949747105
0.0
0.0
0.0011748480674396331
0.0020008765060414674
0.002595490567564542
0.0029275643580084884
0.0031805335419570267
0.0029346581597912706
0.0023692742876488646
0.0014911110406979234
0.0
0.0
0.0017794355793977431
0.002933397109489508
0.003745121886621522
0.004182606388148898
0.004235143354854516
0.003883234209775479
0.0033006627082550625
0.002094972156463198
0.0
0.0
0.0024079344876284624
0.003909996688441282
0.0049524360782722
0.005500312737045801
0.005548178654598136
0.0050784914206819555
0.004063067538090013
0.0025138701182920342
0.0
0.0
0.003041623759053569
0.004899472441604307
0.006182631569109054
0.006850427699310642
0.006899269576604197
0.006311175578368605
0.005055406735435841
0.0031494474347887207
0.0
0.0
0.003471725422305919
0.005683121485491096
0.007407327307594093
0.008198622703101847
0.008254523487841985
0.007554039639318568
0.0060603297378282175
0.0037938457416607017
0.0
0.0
0.004100193164793353
0.006660257497568151
0.008417793722951029
0.009325605641064261
0.009585815074899945
0.00877558997673238
0.007050435045863649
0.004431024519706898
0.0
0.0
0.004725822200753892
0.00762875917097422
0.009610449147510063
0.010624333117724058
0.010680546766882949
0.009757955779998323
0.008006874386366998
0.005048536656532709
0.0
0.0
0.005333357003749275
0.008564549143800546
0.010760479863240613
0.011874451858531388
0.011924065808434874
0.010890986230008897
0.008722728280342658
0.005442653595714803
0.0
0.0
0.00589817464256975
0.009424156445863764
0.011814888164075403
0.01302358760749705
0.013073042506818773
0.011944990472012189
0.009581873750687628
0.006007168427780284
0.0
0.0
0.006196849972982975
0.009961051842415207
0.012707351690578498
0.013993763855992549
0.014049426338155485
0.012853456799319157
0.010337562593270512
0.006518511012186656
0.0
0.0
0.0066063172575102115
0.01052792806499813
0.013166831012357456
0.014495020047631002
0.014754032094083772
0.01352157623216616
0.010914599671792473
0.006934839466106516
0.0
0.0
0.006886567707606823
0.010851398362152646
0.013495836526421324
0.014814740613311632
0.014868258726234828
0.013636450652192248
0.011221542348046218
0.0072040020862226325
0.0
0.0
0.006962991190217687
0.010800993723414826
0.013332644522291012
0.01458069371901813
0.014624917602698488
0.013449266432352915
0.010942907336970968
0.00706138769217483
0.0
0.0
0.006718818021651624
0.01017347457025175
0.012426027417153259
0.01352540313892011
0.013564372726091973
0.012528848808161842
0.010298697880698666
0.006805709669323955
0.0
0.0
0.005804779432859576
0.008510064726629546
0.010455586467847285
0.011301930617872187
0.011337641885547364
0.010549389063913015
0.008823522827888801
0.006083087504663531
0.0
0.0
0.004520417957094872
0.006039089744473048
0.007011683606038031
0.007481663406748253
0.007705490139858089
0.007273970413861731
0.006313875833695422
0.0047717319300572235
0.0
0.0
0.0
0.0
0.0
0.0
0.0
0.0
0.0
0.0
0.0