# vtk DataFile Version 2.0
Landlab output
ASCII
DATASET UNSTRUCTURED_GRID

POINTS 200 float
0.0 0.0 0.0005488135039273248
100.0 0.0 0.0007151893663724195
200.0 0.0 0.0006027633760716439
300.0 0.0 0.0005448831829968968
400.0 0.0 0.0004236547993389047
500.0 0.0 0.0006458941130666561
600.0 0.0 0.00043758721126269253
700.0 0.0 0.0008917730007820798
800.0 0.0 0.0009636627605010292
900.0 0.0 0.0003834415188257777
0.0 100.0 0.0007917250380826646
100.0 100.0 0.0014650491480556209
200.0 100.0 0.0017337621516793117
300.0 100.0 0.0019208308294781024
400.0 100.0 0.002004384974229121
500.0 100.0 0.0020534742177565615
600.0 100.0 0.0019323321227368295
700.0 100.0 0.0018303417284985613
800.0 100.0 0.0015458908278045225
900.0 100.0 0.0008700121482468192
0.0 200.0 0.000978618342232764
100.0 200.0 0.0022142508160516283
200.0 200.0 0.0028331228737000823
300.0 200.0 0.0032775920858988975
400.0 200.0 0.003500028468360127
500.0 200.0 0.003511744099059747
600.0 200.0 0.003285249782221955
700.0 200.0 0.0028381174344629468
800.0 200.0 0.002114296285889961
900.0 200.0 0.0004146619399905236
0.0 300.0 0.00026455561210462694
100.0 300.0 0.0027696298277722223
200.0 300.0 0.0038802377419828375
300.0 300.0 0.004610871120412504
400.0 300.0 0.004967160659986265
500.0 300.0 0.004969011761996483
600.0 300.0 0.004613340779865941
700.0 300.0 0.003895990508500087
800.0 300.0 0.0028479692462874814
900.0 300.0 0.0006818202991034834
0.0 400.0 0.000359507900573786
100.0 400.0 0.0035034810762566973
200.0 400.0 0.0049671293956245685
300.0 400.0 0.00594991826280854
400.0 400.0 0.006429537926172698
500.0 400.0 0.0064246374235746116
600.0 400.0 0.005934609468343328
700.0 400.0 0.00494442112485847
800.0 400.0 0.0034838308469965695
900.0 400.0 0.0003637107709426226
0.0 500.0 0.0005701967704178797
100.0 500.0 0.00429608060180462
200.0 500.0 0.006080810970060706
300.0 500.0 0.007300062608738129
400.0 500.0 0.00789678428724778
500.0 500.0 0.00788577702067018
600.0 500.0 0.007264061635411122
700.0 500.0 0.006009292274974939
800.0 500.0 0.0041577162495959035
900.0 500.0 0.00024442559200160273
0.0 600.0 0.0001589695836455197
100.0 600.0 0.005002380615928552
200.0 600.0 0.007191476936073086
300.0 600.0 0.00865642214528754
400.0 600.0 0.00937079995299935
500.0 600.0 0.009356708833472114
600.0 600.0 0.008610363754507834
700.0 600.0 0.007102601689204599
800.0 600.0 0.004865945504796024
900.0 600.0 9.609840789396307e-05
0.0 700.0 0.0009764594650133958
100.0 700.0 0.005929158105654399
200.0 700.0 0.008342419358612229
300.0 700.0 0.010021501990179444
400.0 700.0 0.010849546814706776
500.0 700.0 0.010836203453411254
600.0 700.0 0.009976353709331462
700.0 700.0 0.008241064685277567
800.0 700.0 0.0056736159793776665
900.0 700.0 0.00011872771895424406
0.0 800.0 0.000317983179393976
100.0 800.0 0.006554273765231665
200.0 800.0 0.00942663445198119
300.0 800.0 0.011368012936176963
400.0 800.0 0.012320629053604615
500.0 800.0 0.012313196428541319
600.0 800.0 0.011348289626953265
700.0 800.0 0.00941091035436152
800.0 800.0 0.00662771094783822
900.0 800.0 0.0009292961975762141
0.0 900.0 0.0003185689524513237
100.0 900.0 0.007293471375845429
200.0 900.0 0.010521098598451848
300.0 900.0 0.012702149404493171
400.0 900.0 0.013773099306305263
500.0 900.0 0.013769040174564097
600.0 900.0 0.012691655675713318
700.0 900.0 0.010505950474724204
800.0 900.0 0.00724724345363134
900.0 900.0 4.695476192547066e-06
0.0 1000.0 0.0006778165367962301
100.0 1000.0 0.008118923292132962
200.0 1000.0 0.011617020300715439
300.0 1000.0 0.014007572898582985
400.0 1000.0 0.015185313233885923
500.0 1000.0 0.015182967769609968
600.0 1000.0 0.01400458891481816
700.0 1000.0 0.011628942198287693
800.0 1000.0 0.008189640829348652
900.0 1000.0 0.000952749011516985
0.0 1100.0 0.00044712537861762736
100.0 1100.0 0.008811440026240548
200.0 1100.0 0.012643928681772533
300.0 1100.0 0.01523980705173722
400.0 1100.0 0.016514918035332418
500.0 1100.0 0.01651023878139894
600.0 1100.0 0.015228800949564702
700.0 1100.0 0.012639045100550937
800.0 1100.0 0.00885369302477236
900.0 1100.0 0.0006925315900777659
0.0 1200.0 0.0007252542798196405
100.0 1200.0 0.009539446263788763
200.0 1200.0 0.013589182495411686
300.0 1200.0 0.016345792876534107
400.0 1200.0 0.01769846637646409
500.0 1200.0 0.01768840409821506
600.0 1200.0 0.01631427078523188
700.0 1200.0 0.013526428768648971
800.0 1200.0 0.009397185062013645
900.0 1200.0 0.00029007760721044406
0.0 1300.0 0.0006180154289988415
100.0 1300.0 0.010107542264304253
200.0 1300.0 0.014353297618245452
300.0 1300.0 0.017228548038710552
400.0 1300.0 0.01863408396155885
500.0 1300.0 0.018619933018700185
600.0 1300.0 0.01718617822578318
700.0 1300.0 0.014280831825556499
800.0 1300.0 0.009994097996011237
900.0 1300.0 0.00043141843543397396
0.0 1400.0 0.000896546595851063
100.0 1400.0 0.010556389586626594
200.0 1400.0 0.014837743212704743
300.0 1400.0 0.01774714939051203
400.0 1400.0 0.019164014787736286
500.0 1400.0 0.01914563070659629
600.0 1400.0 0.017695653347398147
700.0 1400.0 0.01476627088744081
800.0 1400.0 0.010503820994093617
900.0 1400.0 0.0009988470065678664
0.0 1500.0 0.00014944830465799373
100.0 1500.0 0.01056899691303121
200.0 1500.0 0.014842493999294592
300.0 1500.0 0.017682474998570088
400.0 1500.0 0.019048864692115017
500.0 1500.0 0.01902251567293792
600.0 1500.0 0.017608525620241604
700.0 1500.0 0.014732917444965082
800.0 1500.0 0.01044119664333457
900.0 1500.0 6.916699545513805e-05
0.0 1600.0 0.0006974287731445636
100.0 1600.0 0.010459259456073969
200.0 1600.0 0.014217499007208076
300.0 1600.0 0.016752094836435312
400.0 1600.0 0.01796209368611574
500.0 1600.0 0.017922601743207773
600.0 1600.0 0.016643515596301603
700.0 1600.0 0.014052183527797454
800.0 1600.0 0.01019033390603365
900.0 1600.0 0.00017162967726144053
0.0 1700.0 0.0005210366062041293
100.0 1700.0 0.009689169954513235
200.0 1700.0 0.0126294245956513
300.0 1700.0 0.014634170814410371
400.0 1700.0 0.015561160222653685
500.0 1700.0 0.015498554839644392
600.0 1700.0 0.01447842346263676
700.0 1700.0 0.01245503115421164
800.0 1700.0 0.009432243660713008
900.0 1700.0 3.1838929531307844e-05
0.0 1800.0 0.00016469415649791275
100.0 1800.0 0.008280886800252421
200.0 1800.0 0.009986363714257433
300.0 1800.0 0.011278815299627189
400.0 1800.0 0.011766044503271265
500.0 1800.0 0.011648200208640928
600.0 1800.0 0.011001260452130459
700.0 1800.0 0.00986661588616325
800.0 1800.0 0.008185591777778408
900.0 1800.0 0.00031194499547960183
0.0 1900.0 0.0003982210622160919
100.0 1900.0 0.00020984374897512213
200.0 1900.0 0.00018619300588033617
300.0 1900.0 0.0009443723899839336
400.0 1900.0 0.0007395507950492875
500.0 1900.0 0.000490458808617567
600.0 1900.0 0.00022741462797332325
700.0 1900.0 0.00025435648177039296
800.0 1900.0 5.802916032387562e-05
900.0 1900.0 0.0004344166255581208

CELLS 171 855
4 11 10 0 1
4 12 11 1 2
4 13 12 2 3
4 14 13 3 4
4 15 14 4 5
4 16 15 5 6
4 17 16 6 7
4 18 17 7 8
4 19 18 8 9
4 21 20 10 11
4 22 21 11 12
4 23 22 12 13
4 24 23 13 14
4 25 24 14 15
4 26 25 15 16
4 27 26 16 17
4 28 27 17 18
4 29 28 18 19
4 31 30 20 21
4 32 31 21 22
4 33 32 22 23
4 34 33 23 24
4 35 34 24 25
4 36 35 25 26
4 37 36 26 27
4 38 37 27 28
4 39 38 28 29
4 41 40 30 31
4 42 41 31 32
4 43 42 32 33
4 44 43 33 34
4 45 44 34 35
4 46 45 35 36
4 47 46 36 37
4 48 47 37 38
4 49 48 38 39
4 51 50 40 41
4 52 51 41 42
4 53 52 42 43
4 54 53 43 44
4 55 54 44 45
4 56 55 45 46
4 57 56 46 47
4 58 57 47 48
4 59 58 48 49
4 61 60 50 51
4 62 61 51 52
4 63 62 52 53
4 64 63 53 54
4 65 64 54 55
4 66 65 55 56
4 67 66 56 57
4 68 67 57 58
4 69 68 58 59
4 71 70 60 61
4 72 71 61 62
4 73 72 62 63
4 74 73 63 64
4 75 74 64 65
4 76 75 65 66
4 77 76 66 67
4 78 77 67 68
4 79 78 68 69
4 81 80 70 71
4 82 81 71 72
4 83 82 72 73
4 84 83 73 74
4 85 84 74 75
4 86 85 75 76
4 87 86 76 77
4 88 87 77 78
4 89 88 78 79
4 91 90 80 81
4 92 91 81 82
4 93 92 82 83
4 94 93 83 84
4 95 94 84 85
4 96 95 85 86
4 97 96 86 87
4 98 97 87 88
4 99 98 88 89
4 101 100 90 91
4 102 101 91 92
4 103 102 92 93
4 104 103 93 94
4 105 104 94 95
4 106 105 95 96
4 107 106 96 97
4 108 107 97 98
4 109 108 98 99
4 111 110 100 101
4 112 111 101 102
4 113 112 102 103
4 114 113 103 104
4 115 114 104 105
4 116 115 105 106
4 117 116 106 107
4 118 117 107 108
4 119 118 108 109
4 121 120 110 111
4 122 121 111 112
4 123 122 112 113
4 124 123 113 114
4 125 124 114 115
4 126 125 115 116
4 127 126 116 117
4 128 127 117 118
4 129 128 118 119
4 131 130 120 121
4 132 131 121 122
4 133 132 122 123
4 134 133 123 124
4 135 134 124 125
4 136 135 125 126
4 137 136 126 127
4 138 137 127 128
4 139 138 128 129
4 141 140 130 131
4 142 141 131 132
4 143 142 132 133
4 144 143 133 134
4 145 144 134 135
4 146 145 135 136
4 147 146 136 137
4 148 147 137 138
4 149 148 138 139
4 151 150 140 141
4 152 151 141 142
4 153 152 142 143
4 154 153 143 144
4 155 154 144 145
4 156 155 145 146
4 157 156 146 147
4 158 157 147 148
4 159 158 148 149
4 161 160 150 151
4 162 161 151 152
4 163 162 152 153
4 164 163 153 154
4 165 164 154 155
4 166 165 155 156
4 167 166 156 157
4 168 167 157 158
4 169 168 158 159
4 171 170 160 161
4 172 171 161 162
4 173 172 162 163
4 174 173 163 164
4 175 174 164 165
4 176 175 165 166
4 177 176 166 167
4 178 177 167 168
4 179 178 168 169
4 181 180 170 171
4 182 181 171 172
4 183 182 172 173
4 184 183 173 174
4 185 184 174 175
4 186 185 175 176
4 187 186 176 177
4 188 187 177 178
4 189 188 178 179
4 191 190 180 181
4 192 191 181 182
4 193 192 182 183
4 194 193 183 184
4 195 194 184 185
4 196 195 185 186
4 197 196 186 187
4 198 197 187 188
4 199 198 188 189

CELL_TYPES 171
9
9
9
9
9
9
9
9
9
9
9
9
9
9
9
9
9
9
9
9
9
9
9
9
9
9
9
9
9
9
9
9
9
9
9
9
9
9
9
9
9
9
9
9
9
9
9
9
9
9
9
9
9
9
9
9
9
9
9
9
9
9
9
9
9
9
9
9
9
9
9
9
9
9
9
9
9
9
9
9
9
9
9
9
9
9
9
9
9
9
9
9
9
9
9
9
9
9
9
9
9
9
9
9
9
9
9
9
9
9
9
9
9
9
9
9
9
9
9
9
9
9
9
9
9
9
9
9
9
9
9
9
9
9
9
9
9
9
9
9
9
9
9
9
9
9
9
9
9
9
9
9
9
9
9
9
9
9
9
9
9
9
9
9
9
9
9
9
9
9
9

POINT_DATA 200

SCALARS linear_diffusivity float 1
LOOKUP_TABLE default
50000.0
50000.0
50000.0
50000.0
50000.0
50000.0
50000.0
50000.0
50000.0
50000.0
50000.0
50000.0
50000.0
50000.0
50000.0
50000.0
50000.0
50000.0
50000.0
50000.0
50000.0
50000.0
50000.0
50000.0
50000.0
50000.0
50000.0
50000.0
50000.0
50000.0
50000.0
50000.0
50000.0
50000.0
50000.0
50000.0
50000.0
50000.0
50000.0
50000.0
50000.0
50000.0
50000.0
50000.0
50000.0
50000.0
50000.0
50000.0
50000.0
50000.0
50000.0
50000.0
50000.0
50000.0
50000.0
50000.0
50000.0
50000.0
50000.0
50000.0
50000.0
50000.0
50000.0
50000.0
50000.0
50000.0
50000.0
50000.0
50000.0
50000.0
50000.0
50000.0
50000.0
50000.0
50000.0
50000.0
50000.0
50000.0
50000.0
50000.0
50000.0
50000.0
50000.0
50000.0
50000.0
50000.0
50000.0
50000.0
50000.0
50000.0
50000.0
50000.0
50000.0
50000.0
50000.0
50000.0
50000.0
50000.0
50000.0
50000.0
50000.0
50000.0
50000.0
50000.0
50000.0
50000.0
50000.0
50000.0
50000.0
50000.0
50000.0
50000.0
50000.0
50000.0
50000.0
50000.0
50000.0
50000.0
50000.0
50000.0
50000.0
50000.0
50000.0
50000.0
50000.0
50000.0
50000.0
50000.0
50000.0
50000.0
50000.0
50000.0
50000.0
50000.0
50000.0
50000.0
50000.0
50000.0
50000.0
50000.0
50000.0
50000.0
50000.0
50000.0
50000.0
50000.0
50000.0
50000.0
50000.0
50000.0
50000.0
50000.0
50000.0
50000.0
50000.0
50000.0
50000.0
50000.0
50000.0
50000.0
50000.0
50000.0
50000.0
50000.0
50000.0
50000.0
50000.0
50000.0
50000.0
50000.0
50000.0
50000.0
50000.0
50000.0
50000.0
50000.0
50000.0
50000.0
50000.0
50000.0
50000.0
50000.0
50000.0
50000.0
50000.0
50000.0
50000.0
50000.0
50000.0
50000.0
50000.0
50000.0
50000.0
50000.0
50000.0
50000.0
50000.0
50000.0
50000.0
50000.0

SCALARS topographic__elevation float 1
LOOKUP_TABLE default
0.0005488135039273248
0.0007151893663724195
0.0006027633760716439
0.0005448831829968968
0.0004236547993389047
0.0006458941130666561
0.00043758721126269253
0.0008917730007820798
0.0009636627605010292
0.0003834415188257777
0.0007917250380826646
0.0014650491480556209
0.0017337621516793117
0.0019208308294781024
0.002004384974229121
0.0020534742177565615
0.0019323321227368295
0.0018303417284985613
0.0015458908278045225
0.0008700121482468192
0.000978618342232764
0.0022142508160516283
0.0028331228737000823
0.0032775920858988975
0.003500028468360127
0.003511744099059747
0.003285249782221955
0.0028381174344629468
0.002114296285889961
0.0004146619399905236
0.00026455561210462694
0.0027696298277722223
0.0038802377419828375
0.004610871120412504
0.004967160659986265
0.004969011761996483
0.004613340779865941
0.003895990508500087
0.0028479692462874814
0.0006818202991034834
0.000359507900573786
0.0035034810762566973
0.0049671293956245685
0.00594991826280854
0.006429537926172698
0.0064246374235746116
0.005934609468343328
0.00494442112485847
0.0034838308469965695
0.0003637107709426226
0.0005701967704178797
0.00429608060180462
0.006080810970060706
0.007300062608738129
0.00789678428724778
0.00788577702067018
0.007264061635411122
0.006009292274974939
0.0041577162495959035
0.00024442559200160273
0.0001589695836455197
0.005002380615928552
0.007191476936073086
0.00865642214528754
0.00937079995299935
0.009356708833472114
0.008610363754507834
0.007102601689204599
0.004865945504796024
9.609840789396307e-05
0.0009764594650133958
0.005929158105654399
0.008342419358612229
0.010021501990179444
0.010849546814706776
0.010836203453411254
0.009976353709331462
0.008241064685277567
0.0056736159793776665
0.00011872771895424406
0.000317983179393976
0.006554273765231665
0.00942663445198119
0.011368012936176963
0.012320629053604615
0.012313196428541319
0.011348289626953265
0.00941091035436152
0.00662771094783822
0.0009292961975762141
0.0003185689524513237
0.007293471375845429
0.010521098598451848
0.012702149404493171
0.013773099306305263
0.013769040174564097
0.012691655675713318
0.010505950474724204
0.00724724345363134
4.695476192547066e-06
0.0006778165367962301
0.008118923292132962
0.011617020300715439
0.014007572898582985
0.015185313233885923
0.015182967769609968
0.01400458891481816
0.011628942198287693
0.008189640829348652
0.000952749011516985
0.00044712537861762736
0.008811440026240548
0.012643928681772533
0.01523980705173722
0.016514918035332418
0.01651023878139894
0.015228800949564702
0.012639045100550937
0.00885369302477236
0.0006925315900777659
0.0007252542798196405
0.009539446263788763
0.013589182495411686
0.016345792876534107
0.01769846637646409
0.01768840409821506
0.01631427078523188
0.013526428768648971
0.009397185062013645
0.00029007760721044406
0.0006180154289988415
0.010107542264304253
0.014353297618245452
0.017228548038710552
0.01863408396155885
0.018619933018700185
0.01718617822578318
0.014280831825556499
0.009994097996011237
0.00043141843543397396
0.000896546595851063
0.010556389586626594
0.014837743212704743
0.01774714939051203
0.019164014787736286
0.01914563070659629
0.017695653347398147
0.01476627088744081
0.010503820994093617
0.0009988470065678664
0.00014944830465799373
0.01056899691303121
0.014842493999294592
0.017682474998570088
0.019048864692115017
0.01902251567293792
0.017608525620241604
0.014732917444965082
0.01044119664333457
6.916699545513805e-05
0.0006974287731445636
0.010459259456073969
0.014217499007208076
0.016752094836435312
0.01796209368611574
0.017922601743207773
0.016643515596301603
0.014052183527797454
0.01019033390603365
0.00017162967726144053
0.0005210366062041293
0.009689169954513235
0.0126294245956513
0.014634170814410371
0.015561160222653685
0.015498554839644392
0.01447842346263676
0.01245503115421164
0.009432243660713008
3.1838929531307844e-05
0.00016469415649791275
0.008280886800252421
0.009986363714257433
0.011278815299627189
0.011766044503271265
0.011648200208640928
0.011001260452130459
0.00986661588616325
0.008185591777778408
0.00031194499547960183
0.0003982210622160919
0.00020984374897512213
0.00018619300588033617
0.0009443723899839336
0.0007395507950492875
0.000490458808617567
0.00022741462797332325
0.00025435648177039296
5.802916032387562e-05
0.0004344166255581208