# vtk DataFile Version 2.0
Landlab output
ASCII
DATASET UNSTRUCTURED_GRID

POINTS 200 float
0.0 0.0 0.0005488135039273248
100.0 0.0 0.0007151893663724195
200.0 0.0 0.0006027633760716439
300.0 0.0 0.0005448831829968968
400.0 0.0 0.0004236547993389047
500.0 0.0 0.0006458941130666561
600.0 0.0 0.00043758721126269253
700.0 0.0 0.0008917730007820798
800.0 0.0 0.0009636627605010292
900.0 0.0 0.0003834415188257777
0.0 100.0 0.0007917250380826646
100.0 100.0 0.0009639206012215062
200.0 100.0 0.0011061465599124891
300.0 100.0 0.0012225365069414706
400.0 100.0 0.0012804498343901884
500.0 100.0 0.0013340457162453502
600.0 100.0 0.0012454518335162333
700.0 100.0 0.0012157106173787979
800.0 100.0 0.0010532401234884389
900.0 100.0 0.0008700121482468192
0.0 200.0 0.000978618342232764
100.0 200.0 0.0012177858226943882
200.0 200.0 0.0015886077433948961
300.0 200.0 0.0018951034265037472
400.0 200.0 0.0020677438363285753
500.0 200.0 0.002088023081327091
600.0 200.0 0.0019244503877395272
700.0 200.0 0.0016182758908452946
800.0 200.0 0.0011339412648406855
900.0 200.0 0.0004146619399905236
0.0 300.0 0.00026455561210462694
100.0 300.0 0.0012878661673647496
200.0 300.0 0.002037398195153066
300.0 300.0 0.0025686376992727277
400.0 300.0 0.0028535652219618727
500.0 300.0 0.0028672714717242727
600.0 300.0 0.002601133302338688
700.0 300.0 0.002087308543546996
800.0 300.0 0.001388508019522664
900.0 300.0 0.0006818202991034834
0.0 400.0 0.000359507900573786
100.0 400.0 0.0015481666780156756
200.0 400.0 0.0025477099177133537
300.0 400.0 0.0032765719463994985
400.0 400.0 0.003666312077320026
500.0 400.0 0.0036756811241302196
600.0 400.0 0.0032974043260233944
700.0 400.0 0.0025661162622077514
800.0 400.0 0.0015553615158791759
900.0 400.0 0.0003637107709426226
0.0 500.0 0.0005701967704178797
100.0 500.0 0.001877976025529251
200.0 500.0 0.0031047250631326094
300.0 500.0 0.004021818940949803
400.0 500.0 0.0045129305038512126
500.0 500.0 0.0045178035081128365
600.0 500.0 0.004026038904220254
700.0 500.0 0.0030789625359086085
800.0 500.0 0.0017694875700975637
900.0 500.0 0.00024442559200160273
0.0 600.0 0.0001589695836455197
100.0 600.0 0.002129103052975534
200.0 600.0 0.0036727952162910085
300.0 600.0 0.004791754320919579
400.0 600.0 0.005386690298130323
500.0 600.0 0.005389462939778983
600.0 600.0 0.0047884080045854155
700.0 600.0 0.0036325104402553515
800.0 600.0 0.0020243946527048794
900.0 600.0 9.609840789396307e-05
0.0 700.0 0.0009764594650133958
100.0 700.0 0.002603879340573107
200.0 700.0 0.004286929938567517
300.0 700.0 0.005577867644945323
400.0 700.0 0.006273216754966024
500.0 700.0 0.006277283129323139
600.0 700.0 0.005576814415934609
700.0 700.0 0.004235739309043228
800.0 700.0 0.0023810915222593453
900.0 700.0 0.00011872771895424406
0.0 800.0 0.000317983179393976
100.0 800.0 0.0027751795273341256
200.0 800.0 0.004830813681901621
300.0 800.0 0.0063404402961790025
400.0 800.0 0.007146131896571929
500.0 800.0 0.007156366988438359
600.0 800.0 0.006365465549647434
700.0 800.0 0.004865997259808731
800.0 800.0 0.0028818566685902716
900.0 800.0 0.0009292961975762141
0.0 900.0 0.0003185689524513237
100.0 900.0 0.003053687323147103
200.0 900.0 0.005371950659583928
300.0 900.0 0.007072979592738419
400.0 900.0 0.007980159303875392
500.0 900.0 0.007993834873012012
600.0 900.0 0.0071074041396987754
700.0 900.0 0.005407903382247446
800.0 900.0 0.0030408255476925368
900.0 900.0 4.695476192547066e-06
0.0 1000.0 0.0006778165367962301
100.0 1000.0 0.0034066987276016223
200.0 1000.0 0.005892391668271457
300.0 1000.0 0.007746829089756772
400.0 1000.0 0.008739684063215153
500.0 1000.0 0.008754997584610291
600.0 1000.0 0.007788571624505711
700.0 1000.0 0.005955196285586585
800.0 1000.0 0.0035106399983321846
900.0 1000.0 0.000952749011516985
0.0 1100.0 0.00044712537861762736
100.0 1100.0 0.0036107648962625523
200.0 1100.0 0.006313599845384437
300.0 1100.0 0.008306558497552343
400.0 1100.0 0.009369835600365937
500.0 1100.0 0.0093825944122439
600.0 1100.0 0.008339719338083855
700.0 1100.0 0.0063589623311803125
800.0 1100.0 0.003685825897173434
900.0 1100.0 0.0006925315900777659
0.0 1200.0 0.0007252542798196405
100.0 1200.0 0.003832089078849754
200.0 1200.0 0.006618500545640377
300.0 1200.0 0.00869276119507377
400.0 1200.0 0.009799662589882527
500.0 1200.0 0.009806612430909098
600.0 1200.0 0.00870432713794568
700.0 1200.0 0.006604765344874289
800.0 1200.0 0.0037218342844568043
900.0 1200.0 0.00029007760721044406
0.0 1300.0 0.0006180154289988415
100.0 1300.0 0.0038792198667598433
200.0 1300.0 0.006714163243886778
300.0 1300.0 0.008816044057836293
400.0 1300.0 0.009935015692199189
500.0 1300.0 0.009937133575642168
600.0 1300.0 0.008814879570572134
700.0 1300.0 0.006688573952127274
800.0 1300.0 0.003796383272927912
900.0 1300.0 0.00043141843543397396
0.0 1400.0 0.000896546595851063
100.0 1400.0 0.003813011582022547
200.0 1400.0 0.006537470773569335
300.0 1400.0 0.008579561706459756
400.0 1400.0 0.00966567316983312
500.0 1400.0 0.009662356578490855
600.0 1400.0 0.008566228150047142
700.0 1400.0 0.006509413108317664
800.0 1400.0 0.003788790159965457
900.0 1400.0 0.0009988470065678664
0.0 1500.0 0.00014944830465799373
100.0 1500.0 0.003371549100412322
200.0 1500.0 0.00598584717131512
300.0 1500.0 0.00788671202979288
400.0 1500.0 0.008885331527138449
500.0 1500.0 0.00887225854235253
600.0 1500.0 0.007846387680438561
700.0 1500.0 0.005914523147089563
800.0 1500.0 0.003268725327093068
900.0 1500.0 6.916699545513805e-05
0.0 1600.0 0.0006974287731445636
100.0 1600.0 0.002976677488521621
200.0 1600.0 0.005101255091922045
300.0 1600.0 0.0066978541522137915
400.0 1600.0 0.0075321726842311
500.0 1600.0 0.007503492049725887
600.0 1600.0 0.006616657289268852
700.0 1600.0 0.004967090218087458
800.0 1600.0 0.0027280912362391417
900.0 1600.0 0.00017162967726144053
0.0 1700.0 0.0005210366062041293
100.0 1700.0 0.0022323538134592777
200.0 1700.0 0.0038043688121138968
300.0 1700.0 0.005014430206172156
400.0 1700.0 0.005617642590763658
500.0 1700.0 0.005562714746023023
600.0 1700.0 0.004878128111666876
700.0 1700.0 0.003652096496443268
800.0 1700.0 0.0019898711068061744
900.0 1700.0 3.1838929531307844e-05
0.0 1800.0 0.00016469415649791275
100.0 1800.0 0.0012417648171828568
200.0 1800.0 0.0021500965302273366
300.0 1800.0 0.002976070306052704
400.0 1800.0 0.0032711867449842767
500.0 1800.0 0.0031573372661116545
600.0 1800.0 0.002708633295024984
700.0 1800.0 0.0020418588250820983
800.0 1800.0 0.0011539851014188984
900.0 1800.0 0.00031194499547960183
0.0 1900.0 0.0003982210622160919
100.0 1900.0 0.00020984374897512213
200.0 1900.0 0.00018619300588033617
300.0 1900.0 0.0009443723899839336
400.0 1900.0 0.0007395507950492875
500.0 1900.0 0.000490458808617567
600.0 1900.0 0.00022741462797332325
700.0 1900.0 0.00025435648177039296
800.0 1900.0 5.802916032387562e-05
900.0 1900.0 0.0004344166255581208

CELLS 171 855
4 11 10 0 1
4 12 11 1 2
4 13 12 2 3
4 14 13 3 4
4 15 14 4 5
4 16 15 5 6
4 17 16 6 7
4 18 17 7 8
4 19 18 8 9
4 21 20 10 11
4 22 21 11 12
4 23 22 12 13
4 24 23 13 14
4 25 24 14 15
4 26 25 15 16
4 27 26 16 17
4 28 27 17 18
4 29 28 18 19
4 31 30 20 21
4 32 31 21 22
4 33 32 22 23
4 34 33 23 24
4 35 34 24 25
4 36 35 25 26
4 37 36 26 27
4 38 37 27 28
4 39 38 28 29
4 41 40 30 31
4 42 41 31 32
4 43 42 32 33
4 44 43 33 34
4 45 44 34 35
4 46 45 35 36
4 47 46 36 37
4 48 47 37 38
4 49 48 38 39
4 51 50 40 41
4 52 51 41 42
4 53 52 42 43
4 54 53 43 44
4 55 54 44 45
4 56 55 45 46
4 57 56 46 47
4 58 57 47 48
4 59 58 48 49
4 61 60 50 51
4 62 61 51 52
4 63 62 52 53
4 64 63 53 54
4 65 64 54 55
4 66 65 55 56
4 67 66 56 57
4 68 67 57 58
4 69 68 58 59
4 71 70 60 61
4 72 71 61 62
4 73 72 62 63
4 74 73 63 64
4 75 74 64 65
4 76 75 65 66
4 77 76 66 67
4 78 77 67 68
4 79 78 68 69
4 81 80 70 71
4 82 81 71 72
4 83 82 72 73
4 84 83 73 74
4 85 84 74 75
4 86 85 75 76
4 87 86 76 77
4 88 87 77 78
4 89 88 78 79
4 91 90 80 81
4 92 91 81 82
4 93 92 82 83
4 94 93 83 84
4 95 94 84 85
4 96 95 85 86
4 97 96 86 87
4 98 97 87 88
4 99 98 88 89
4 101 100 90 91
4 102 101 91 92
4 103 102 92 93
4 104 103 93 94
4 105 104 94 95
4 106 105 95 96
4 107 106 96 97
4 108 107 97 98
4 109 108 98 99
4 111 110 100 101
4 112 111 101 102
4 113 112 102 103
4 114 113 103 104
4 115 114 104 105
4 116 115 105 106
4 117 116 106 107
4 118 117 107 108
4 119 118 108 109
4 121 120 110 111
4 122 121 111 112
4 123 122 112 113
4 124 123 113 114
4 125 124 114 115
4 126 125 115 116
4 127 126 116 117
4 128 127 117 118
4 129 128 118 119
4 131 130 120 121
4 132 131 121 122
4 133 132 122 123
4 134 133 123 124
4 135 134 124 125
4 136 135 125 126
4 137 136 126 127
4 138 137 127 128
4 139 138 128 129
4 141 140 130 131
4 142 141 131 132
4 143 142 132 133
4 144 143 133 134
4 145 144 134 135
4 146 145 135 136
4 147 146 136 137
4 148 147 137 138
4 149 148 138 139
4 151 150 140 141
4 152 151 141 142
4 153 152 142 143
4 154 153 143 144
4 155 154 144 145
4 156 155 145 146
4 157 156 146 147
4 158 157 147 148
4 159 158 148 149
4 161 160 150 151
4 162 161 151 152
4 163 162 152 153
4 164 163 153 154
4 165 164 154 155
4 166 165 155 156
4 167 166 156 157
4 168 167 157 158
4 169 168 158 159
4 171 170 160 161
4 172 171 161 162
4 173 172 162 163
4 174 173 163 164
4 175 174 164 165
4 176 175 165 166
4 177 176 166 167
4 178 177 167 168
4 179 178 168 169
4 181 180 170 171
4 182 181 171 172
4 183 182 172 173
4 184 183 173 174
4 185 184 174 175
4 186 185 175 176
4 187 186 176 177
4 188 187 177 178
4 189 188 178 179
4 191 190 180 181
4 192 191 181 182
4 193 192 182 183
4 194 193 183 184
4 195 194 184 185
4 196 195 185 186
4 197 196 186 187
4 198 197 187 188
4 199 198 188 189

CELL_TYPES 171
9
9
9
9
9
9
9
9
9
9
9
9
9
9
9
9
9
9
9
9
9
9
9
9
9
9
9
9
9
9
9
9
9
9
9
9
9
9
9
9
9
9
9
9
9
9
9
9
9
9
9
9
9
9
9
9
9
9
9
9
9
9
9
9
9
9
9
9
9
9
9
9
9
9
9
9
9
9
9
9
9
9
9
9
9
9
9
9
9
9
9
9
9
9
9
9
9
9
9
9
9
9
9
9
9
9
9
9
9
9
9
9
9
9
9
9
9
9
9
9
9
9
9
9
9
9
9
9
9
9
9
9
9
9
9
9
9
9
9
9
9
9
9
9
9
9
9
9
9
9
9
9
9
9
9
9
9
9
9
9
9
9
9
9
9
9
9
9
9
9
9

POINT_DATA 200

SCALARS linear_diffusivity float 1
LOOKUP_TABLE default
50000.0
50000.0
50000.0
50000.0
50000.0
50000.0
50000.0
50000.0
50000.0
50000.0
50000.0
50000.0
50000.0
50000.0
50000.0
50000.0
50000.0
50000.0
50000.0
50000.0
50000.0
50000.0
50000.0
50000.0
50000.0
50000.0
50000.0
50000.0
50000.0
50000.0
50000.0
50000.0
50000.0
50000.0
50000.0
50000.0
50000.0
50000.0
50000.0
50000.0
50000.0
50000.0
50000.0
50000.0
50000.0
50000.0
50000.0
50000.0
50000.0
50000.0
50000.0
50000.0
50000.0
50000.0
50000.0
50000.0
50000.0
50000.0
50000.0
50000.0
50000.0
50000.0
50000.0
50000.0
50000.0
50000.0
50000.0
50000.0
50000.0
50000.0
50000.0
50000.0
50000.0
50000.0
50000.0
50000.0
50000.0
50000.0
50000.0
50000.0
50000.0
50000.0
50000.0
50000.0
50000.0
50000.0
50000.0
50000.0
50000.0
50000.0
50000.0
50000.0
50000.0
50000.0
50000.0
50000.0
50000.0
50000.0
50000.0
50000.0
50000.0
50000.0
50000.0
50000.0
50000.0
50000.0
50000.0
50000.0
50000.0
50000.0
50000.0
50000.0
50000.0
50000.0
50000.0
50000.0
50000.0
50000.0
50000.0
50000.0
50000.0
50000.0
50000.0
50000.0
50000.0
50000.0
50000.0
50000.0
50000.0
50000.0
50000.0
50000.0
50000.0
50000.0
50000.0
50000.0
50000.0
50000.0
50000.0
50000.0
50000.0
50000.0
50000.0
50000.0
50000.0
50000.0
50000.0
50000.0
50000.0
50000.0
50000.0
50000.0
50000.0
50000.0
50000.0
50000.0
50000.0
50000.0
50000.0
50000.0
50000.0
50000.0
50000.0
50000.0
50000.0
50000.0
50000.0
50000.0
50000.0
50000.0
50000.0
50000.0
50000.0
50000.0
50000.0
50000.0
50000.0
50000.0
50000.0
50000.0
50000.0
50000.0
50000.0
50000.0
50000.0
50000.0
50000.0
50000.0
50000.0
50000.0
50000.0
50000.0
50000.0
50000.0
50000.0
50000.0
50000.0
50000.0
50000.0
50000.0

SCALARS topographic__elevation float 1
LOOKUP_TABLE default
0.0005488135039273248
0.0007151893663724195
0.0006027633760716439
0.0005448831829968968
0.0004236547993389047
0.0006458941130666561
0.00043758721126269253
0.0008917730007820798
0.0009636627605010292
0.0003834415188257777
0.0007917250380826646
0.0009639206012215062
0.0011061465599124891
0.0012225365069414706
0.0012804498343901884
0.0013340457162453502
0.0012454518335162333
0.0012157106173787979
0.0010532401234884389
0.0008700121482468192
0.000978618342232764
0.0012177858226943882
0.0015886077433948961
0.0018951034265037472
0.0020677438363285753
0.002088023081327091
0.0019244503877395272
0.0016182758908452946
0.0011339412648406855
0.0004146619399905236
0.00026455561210462694
0.0012878661673647496
0.002037398195153066
0.0025686376992727277
0.0028535652219618727
0.0028672714717242727
0.002601133302338688
0.002087308543546996
0.001388508019522664
0.0006818202991034834
0.000359507900573786
0.0015481666780156756
0.0025477099177133537
0.0032765719463994985
0.003666312077320026
0.0036756811241302196
0.0032974043260233944
0.0025661162622077514
0.0015553615158791759
0.0003637107709426226
0.0005701967704178797
0.001877976025529251
0.0031047250631326094
0.004021818940949803
0.0045129305038512126
0.0045178035081128365
0.004026038904220254
0.0030789625359086085
0.0017694875700975637
0.00024442559200160273
0.0001589695836455197
0.002129103052975534
0.0036727952162910085
0.004791754320919579
0.005386690298130323
0.005389462939778983
0.0047884080045854155
0.0036325104402553515
0.0020243946527048794
9.609840789396307e-05
0.0009764594650133958
0.002603879340573107
0.004286929938567517
0.005577867644945323
0.006273216754966024
0.006277283129323139
0.005576814415934609
0.004235739309043228
0.0023810915222593453
0.00011872771895424406
0.000317983179393976
0.0027751795273341256
0.004830813681901621
0.0063404402961790025
0.007146131896571929
0.007156366988438359
0.006365465549647434
0.004865997259808731
0.0028818566685902716
0.0009292961975762141
0.0003185689524513237
0.003053687323147103
0.005371950659583928
0.007072979592738419
0.007980159303875392
0.007993834873012012
0.0071074041396987754
0.005407903382247446
0.0030408255476925368
4.695476192547066e-06
0.0006778165367962301
0.0034066987276016223
0.005892391668271457
0.007746829089756772
0.008739684063215153
0.008754997584610291
0.007788571624505711
0.005955196285586585
0.0035106399983321846
0.000952749011516985
0.00044712537861762736
0.0036107648962625523
0.006313599845384437
0.008306558497552343
0.009369835600365937
0.0093825944122439
0.008339719338083855
0.0063589623311803125
0.003685825897173434
0.0006925315900777659
0.0007252542798196405
0.003832089078849754
0.006618500545640377
0.00869276119507377
0.009799662589882527
0.009806612430909098
0.00870432713794568
0.006604765344874289
0.0037218342844568043
0.00029007760721044406
0.0006180154289988415
0.0038792198667598433
0.006714163243886778
0.008816044057836293
0.009935015692199189
0.009937133575642168
0.008814879570572134
0.006688573952127274
0.003796383272927912
0.00043141843543397396
0.000896546595851063
0.003813011582022547
0.006537470773569335
0.008579561706459756
0.00966567316983312
0.009662356578490855
0.008566228150047142
0.006509413108317664
0.003788790159965457
0.0009988470065678664
0.00014944830465799373
0.003371549100412322
0.00598584717131512
0.00788671202979288
0.008885331527138449
0.00887225854235253
0.007846387680438561
0.005914523147089563
0.003268725327093068
6.916699545513805e-05
0.0006974287731445636
0.002976677488521621
0.005101255091922045
0.0066978541522137915
0.0075321726842311
0.007503492049725887
0.006616657289268852
0.004967090218087458
0.0027280912362391417
0.00017162967726144053
0.0005210366062041293
0.0022323538134592777
0.0038043688121138968
0.005014430206172156
0.005617642590763658
0.005562714746023023
0.004878128111666876
0.003652096496443268
0.0019898711068061744
3.1838929531307844e-05
0.00016469415649791275
0.0012417648171828568
0.0021500965302273366
0.002976070306052704
0.0032711867449842767
0.0031573372661116545
0.002708633295024984
0.0020418588250820983
0.0011539851014188984
0.00031194499547960183
0.0003982210622160919
0.00020984374897512213
0.00018619300588033617
0.0009443723899839336
0.0007395507950492875
0.000490458808617567
0.00022741462797332325
0.00025435648177039296
5.802916032387562e-05
0.0004344166255581208