# vtk DataFile Version 2.0
Landlab output
ASCII
DATASET UNSTRUCTURED_GRID

POINTS 200 float
0.0 0.0 0.0
100.0 0.0 0.0
200.0 0.0 0.0
300.0 0.0 0.0
400.0 0.0 0.0
500.0 0.0 0.0
600.0 0.0 0.0
700.0 0.0 0.0
800.0 0.0 0.0
900.0 0.0 0.0
0.0 100.0 0.0
100.0 100.0 0.00022686099828228134
200.0 100.0 0.0004246442304786434
300.0 100.0 0.0005750260007604469
400.0 100.0 0.0006658140827688291
500.0 100.0 0.0006885041511360298
600.0 100.0 0.0006353823971522778
700.0 100.0 0.0004995546623132564
800.0 100.0 0.0002797644325648101
900.0 100.0 0.0
0.0 200.0 0.0
100.0 200.0 0.0004856841076999992
200.0 200.0 0.0009004709382803566
300.0 200.0 0.0013738176195783871
400.0 200.0 0.0015552616464574636
500.0 200.0 0.0015992095297629018
600.0 200.0 0.0014900530497254795
700.0 200.0 0.0012101360521918534
800.0 200.0 0.0007526416530593125
900.0 200.0 0.0
0.0 300.0 0.0
100.0 300.0 0.0009585611648199962
200.0 300.0 0.0016183929889400724
300.0 300.0 0.0020878362887613968
400.0 300.0 0.0023543754540923
500.0 300.0 0.0025769914543469774
600.0 300.0 0.00240198881250193
700.0 300.0 0.0019655468091410886
800.0 300.0 0.001251249579907734
900.0 300.0 0.0
0.0 400.0 0.0
100.0 400.0 0.0014743112405280424
200.0 400.0 0.002407511289768056
300.0 400.0 0.003049618889712836
400.0 400.0 0.0033965859893066823
500.0 400.0 0.003450947655004878
600.0 400.0 0.0031930570606976925
700.0 400.0 0.0027499121501037963
800.0 400.0 0.0017637163375928385
900.0 400.0 0.0
0.0 500.0 0.0
100.0 500.0 0.002013914143753709
200.0 500.0 0.0032412521820678725
300.0 500.0 0.0040707498943376805
400.0 500.0 0.004503707173468853
500.0 500.0 0.004551653053381939
600.0 500.0 0.004197592744776991
700.0 500.0 0.0033972310380721276
800.0 500.0 0.002123091542998495
900.0 500.0 0.0
0.0 600.0 0.0
100.0 600.0 0.0025572164236184213
200.0 600.0 0.004086552580399078
300.0 600.0 0.005115196132883145
400.0 600.0 0.005645845115858155
500.0 600.0 0.005694712723284418
600.0 600.0 0.005244391134252103
700.0 600.0 0.004245240012238604
800.0 600.0 0.0026681812698549513
900.0 600.0 0.0
0.0 700.0 0.0
100.0 700.0 0.002930514179375291
200.0 700.0 0.00476019539423134
300.0 700.0 0.006155961944142734
400.0 700.0 0.006789342632385569
500.0 700.0 0.006846909165742593
600.0 700.0 0.006307596001479508
700.0 700.0 0.005112075392021017
800.0 700.0 0.0032261971778262018
900.0 700.0 0.0
0.0 800.0 0.0
100.0 800.0 0.003474262454658628
200.0 800.0 0.005602735507885837
300.0 800.0 0.007025590044595429
400.0 800.0 0.007754543123938837
500.0 800.0 0.007984135260539482
600.0 800.0 0.007357683368627007
700.0 800.0 0.00597086863457595
800.0 800.0 0.003780978337837166
900.0 800.0 0.0
0.0 900.0 0.0
100.0 900.0 0.00402475554339874
200.0 900.0 0.0064535607317133085
300.0 900.0 0.008065129470833767
400.0 900.0 0.008880035006796887
500.0 900.0 0.008937878854872575
600.0 900.0 0.008217467787165636
700.0 900.0 0.006806245280585462
800.0 900.0 0.004320965817828858
900.0 900.0 0.0
0.0 1000.0 0.0
100.0 1000.0 0.004568346544249351
200.0 1000.0 0.007293421499395806
300.0 1000.0 0.009092274439529277
400.0 1000.0 0.00999162087684268
500.0 1000.0 0.010041187832600811
600.0 1000.0 0.009223247803250841
700.0 1000.0 0.007454144723500418
800.0 1000.0 0.004680648028113792
900.0 1000.0 0.0
0.0 1100.0 0.0
100.0 1100.0 0.0050823190323428915
200.0 1100.0 0.008083192527356614
300.0 1100.0 0.010061135725878002
400.0 1100.0 0.011046787111934308
500.0 1100.0 0.01109620982593356
600.0 1100.0 0.010191742542691536
700.0 1100.0 0.008243496581622494
800.0 1100.0 0.005194345559363088
900.0 1100.0 0.0
0.0 1200.0 0.0
100.0 1200.0 0.005381249750197526
200.0 1200.0 0.008617340237905712
300.0 1200.0 0.010914221430944842
400.0 1200.0 0.011976704406999366
500.0 1200.0 0.012034041973330507
600.0 1200.0 0.011065271713241173
700.0 1200.0 0.008968549192279364
800.0 1200.0 0.005676490548236074
900.0 1200.0 0.0
0.0 1300.0 0.0
100.0 1300.0 0.0057825142105098655
200.0 1300.0 0.009193447178599712
300.0 1300.0 0.011426696348817102
400.0 1300.0 0.012536667061942784
500.0 1300.0 0.012765137212417723
600.0 1300.0 0.011755928777471135
700.0 1300.0 0.009558290222299148
800.0 1300.0 0.006087061364099656
900.0 1300.0 0.0
0.0 1400.0 0.0
100.0 1400.0 0.006083833357899684
200.0 1400.0 0.009580022186289327
300.0 1400.0 0.011846188316477173
400.0 1400.0 0.012960258960239104
500.0 1400.0 0.013015545452260881
600.0 1400.0 0.011991986487997744
700.0 1400.0 0.00992514055419499
800.0 1400.0 0.006375031734890953
900.0 1400.0 0.0
0.0 1500.0 0.0
100.0 1500.0 0.006210393048466508
200.0 1500.0 0.009647934181615135
300.0 1500.0 0.011848484948771719
400.0 1500.0 0.012915535535326757
500.0 1500.0 0.012959918758985538
600.0 1500.0 0.011966112793807517
700.0 1500.0 0.009793018462724838
800.0 1500.0 0.006312217896821045
900.0 1500.0 0.0
0.0 1600.0 0.0
100.0 1600.0 0.006042267559058762
200.0 1600.0 0.009189830918378855
300.0 1600.0 0.011178354034381808
400.0 1600.0 0.012131996896316272
500.0 1600.0 0.012171262137629897
600.0 1600.0 0.011282519768594677
700.0 1600.0 0.009318520990546354
800.0 1600.0 0.006132728983079368
900.0 1600.0 0.0
0.0 1700.0 0.0
100.0 1700.0 0.005250414711525549
200.0 1700.0 0.007760425708235548
300.0 1700.0 0.009492703562591952
400.0 1700.0 0.010238380712855918
500.0 1700.0 0.010276167967606165
600.0 1700.0 0.009592334325565628
700.0 1700.0 0.008049049123368728
800.0 1700.0 0.005502263251984651
900.0 1700.0 0.0
0.0 1800.0 0.0
100.0 1800.0 0.004032832524568342
200.0 1800.0 0.005464992335804074
300.0 1800.0 0.006349501170018043
400.0 1800.0 0.00676918827141051
500.0 1800.0 0.006962264474850365
600.0 1800.0 0.006585313101969964
700.0 1800.0 0.005715398579899012
800.0 1800.0 0.004257525134127857
900.0 1800.0 0.0
0.0 1900.0 0.0
100.0 1900.0 0.0
200.0 1900.0 0.0
300.0 1900.0 0.0
400.0 1900.0 0.0
500.0 1900.0 0.0
600.0 1900.0 0.0
700.0 1900.0 0.0
800.0 1900.0 0.0
900.0 1900.0 0.0

CELLS 171 855
4 11 10 0 1
4 12 11 1 2
4 13 12 2 3
4 14 13 3 4
4 15 14 4 5
4 16 15 5 6
4 17 16 6 7
4 18 17 7 8
4 19 18 8 9
4 21 20 10 11
4 22 21 11 12
4 23 22 12 13
4 24 23 13 14
4 25 24 14 15
4 26 25 15 16
4 27 26 16 17
4 28 27 17 18
4 29 28 18 19
4 31 30 20 21
4 32 31 21 22
4 33 32 22 23
4 34 33 23 24
4 35 34 24 25
4 36 35 25 26
4 37 36 26 27
4 38 37 27 28
4 39 38 28 29
4 41 40 30 31
4 42 41 31 32
4 43 42 32 33
4 44 43 33 34
4 45 44 34 35
4 46 45 35 36
4 47 46 36 37
4 48 47 37 38
4 49 48 38 39
4 51 50 40 41
4 52 51 41 42
4 53 52 42 43
4 54 53 43 44
4 55 54 44 45
4 56 55 45 46
4 57 56 46 47
4 58 57 47 48
4 59 58 48 49
4 61 60 50 51
4 62 61 51 52
4 63 62 52 53
4 64 63 53 54
4 65 64 54 55
4 66 65 55 56
4 67 66 56 57
4 68 67 57 58
4 69 68 58 59
4 71 70 60 61
4 72 71 61 62
4 73 72 62 63
4 74 73 63 64
4 75 74 64 65
4 76 75 65 66
4 77 76 66 67
4 78 77 67 68
4 79 78 68 69
4 81 80 70 71
4 82 81 71 72
4 83 82 72 73
4 84 83 73 74
4 85 84 74 75
4 86 85 75 76
4 87 86 76 77
4 88 87 77 78
4 89 88 78 79
4 91 90 80 81
4 92 91 81 82
4 93 92 82 83
4 94 93 83 84
4 95 94 84 85
4 96 95 85 86
4 97 96 86 87
4 98 97 87 88
4 99 98 88 89
4 101 100 90 91
4 102 101 91 92
4 103 102 92 93
4 104 103 93 94
4 105 104 94 95
4 106 105 95 96
4 107 106 96 97
4 108 107 97 98
4 109 108 98 99
4 111 110 100 101
4 112 111 101 102
4 113 112 102 103
4 114 113 103 104
4 115 114 104 105
4 116 115 105 106
4 117 116 106 107
4 118 117 107 108
4 119 118 108 109
4 121 120 110 111
4 122 121 111 112
4 123 122 112 113
4 124 123 113 114
4 125 124 114 115
4 126 125 115 116
4 127 126 116 117
4 128 127 117 118
4 129 128 118 119
4 131 130 120 121
4 132 131 121 122
4 133 132 122 123
4 134 133 123 124
4 135 134 124 125
4 136 135 125 126
4 137 136 126 127
4 138 137 127 128
4 139 138 128 129
4 141 140 130 131
4 142 141 131 132
4 143 142 132 133
4 144 143 133 134
4 145 144 134 135
4 146 145 135 136
4 147 146 136 137
4 148 147 137 138
4 149 148 138 139
4 151 150 140 141
4 152 151 141 142
4 153 152 142 143
4 154 153 143 144
4 155 154 144 145
4 156 155 145 146
4 157 156 146 147
4 158 157 147 148
4 159 158 148 149
4 161 160 150 151
4 162 161 151 152
4 163 162 152 153
4 164 163 153 154
4 165 164 154 155
4 166 165 155 156
4 167 166 156 157
4 168 167 157 158
4 169 168 158 159
4 171 170 160 161
4 172 171 161 162
4 173 172 162 163
4 174 173 163 164
4 175 174 164 165
4 176 175 165 166
4 177 176 166 167
4 178 177 167 168
4 179 178 168 169
4 181 180 170 171
4 182 181 171 172
4 183 182 172 173
4 184 183 173 174
4 185 184 174 175
4 186 185 175 176
4 187 186 176 177
4 188 187 177 178
4 189 188 178 179
4 191 190 180 181
4 192 191 181 182
4 193 192 182 183
4 194 193 183 184
4 195 194 184 185
4 196 195 185 186
4 197 196 186 187
4 198 197 187 188
4 199 198 188 189

CELL_TYPES 171
9
9
9
9
9
9
9
9
9
9
9
9
9
9
9
9
9
9
9
9
9
9
9
9
9
9
9
9
9
9
9
9
9
9
9
9
9
9
9
9
9
9
9
9
9
9
9
9
9
9
9
9
9
9
9
9
9
9
9
9
9
9
9
9
9
9
9
9
9
9
9
9
9
9
9
9
9
9
9
9
9
9
9
9
9
9
9
9
9
9
9
9
9
9
9
9
9
9
9
9
9
9
9
9
9
9
9
9
9
9
9
9
9
9
9
9
9
9
9
9
9
9
9
9
9
9
9
9
9
9
9
9
9
9
9
9
9
9
9
9
9
9
9
9
9
9
9
9
9
9
9
9
9
9
9
9
9
9
9
9
9
9
9
9
9
9
9
9
9
9
9

POINT_DATA 200

SCALARS linear_diffusivity float 1
LOOKUP_TABLE default
50000.0
50000.0
50000.0
50000.0
50000.0
50000.0
50000.0
50000.0
50000.0
50000.0
50000.0
50000.0
50000.0
50000.0
50000.0
50000.0
50000.0
50000.0
50000.0
50000.0
50000.0
50000.0
50000.0
50000.0
50000.0
50000.0
50000.0
50000.0
50000.0
50000.0
50000.0
50000.0
50000.0
50000.0
50000.0
50000.0
50000.0
50000.0
50000.0
50000.0
50000.0
50000.0
50000.0
50000.0
50000.0
50000.0
50000.0
50000.0
50000.0
50000.0
50000.0
50000.0
50000.0
50000.0
50000.0
50000.0
50000.0
50000.0
50000.0
50000.0
50000.0
50000.0
50000.0
50000.0
50000.0
50000.0
50000.0
50000.0
50000.0
50000.0
50000.0
50000.0
50000.0
50000.0
50000.0
50000.0
50000.0
50000.0
50000.0
50000.0
50000.0
50000.0
50000.0
50000.0
50000.0
50000.0
50000.0
50000.0
50000.0
50000.0
50000.0
50000.0
50000.0
50000.0
50000.0
50000.0
50000.0
50000.0
50000.0
50000.0
50000.0
50000.0
50000.0
50000.0
50000.0
50000.0
50000.0
50000.0
50000.0
50000.0
50000.0
50000.0
50000.0
50000.0
50000.0
50000.0
50000.0
50000.0
50000.0
50000.0
50000.0
50000.0
50000.0
50000.0
50000.0
50000.0
50000.0
50000.0
50000.0
50000.0
50000.0
50000.0
50000.0
50000.0
50000.0
50000.0
50000.0
50000.0
50000.0
50000.0
50000.0
50000.0
50000.0
50000.0
50000.0
50000.0
50000.0
50000.0
50000.0
50000.0
50000.0
50000.0
50000.0
50000.0
50000.0
50000.0
50000.0
50000.0
50000.0
50000.0
50000.0
50000.0
50000.0
50000.0
50000.0
50000.0
50000.0
50000.0
50000.0
50000.0
50000.0
50000.0
50000.0
50000.0
50000.0
50000.0
50000.0
50000.0
50000.0
50000.0
50000.0
50000.0
50000.0
50000.0
50000.0
50000.0
50000.0
50000.0
50000.0
50000.0
50000.0
50000.0
50000.0
50000.0
50000.0
50000.0
50000.0
50000.0
50000.0
50000.0

SCALARS topographic__elevation float 1
LOOKUP_TABLE default
0.0
0.0
0.0
0.0
0.0
0.0
0.0
0.0
0.0
0.0
0.0
0.00022686099828228134
0.0004246442304786434
0.0005750260007604469
0.0006658140827688291
0.0006885041511360298
0.0006353823971522778
0.0004995546623132564
0.0002797644325648101
0.0
0.0
0.0004856841076999992
0.0009004709382803566
0.0013738176195783871
0.0015552616464574636
0.0015992095297629018
0.0014900530497254795
0.0012101360521918534
0.0007526416530593125
0.0
0.0
0.0009585611648199962
0.0016183929889400724
0.0020878362887613968
0.0023543754540923
0.0025769914543469774
0.00240198881250193
0.0019655468091410886
0.001251249579907734
0.0
0.0
0.0014743112405280424
0.002407511289768056
0.003049618889712836
0.0033965859893066823
0.003450947655004878
0.0031930570606976925
0.0027499121501037963
0.0017637163375928385
0.0
0.0
0.002013914143753709
0.0032412521820678725
0.0040707498943376805
0.004503707173468853
0.004551653053381939
0.004197592744776991
0.0033972310380721276
0.002123091542998495
0.0
0.0
0.0025572164236184213
0.004086552580399078
0.005115196132883145
0.005645845115858155
0.005694712723284418
0.005244391134252103
0.004245240012238604
0.0026681812698549513
0.0
0.0
0.002930514179375291
0.00476019539423134
0.006155961944142734
0.006789342632385569
0.006846909165742593
0.006307596001479508
0.005112075392021017
0.0032261971778262018
0.0
0.0
0.003474262454658628
0.005602735507885837
0.007025590044595429
0.007754543123938837
0.007984135260539482
0.007357683368627007
0.00597086863457595
0.003780978337837166
0.0
0.0
0.00402475554339874
0.0064535607317133085
0.008065129470833767
0.008880035006796887
0.008937878854872575
0.008217467787165636
0.006806245280585462
0.004320965817828858
0.0
0.0
0.004568346544249351
0.007293421499395806
0.009092274439529277
0.00999162087684268
0.010041187832600811
0.009223247803250841
0.007454144723500418
0.004680648028113792
0.0
0.0
0.0050823190323428915
0.008083192527356614
0.010061135725878002
0.011046787111934308
0.01109620982593356
0.010191742542691536
0.008243496581622494
0.005194345559363088
0.0
0.0
0.005381249750197526
0.008617340237905712
0.010914221430944842
0.011976704406999366
0.012034041973330507
0.011065271713241173
0.008968549192279364
0.005676490548236074
0.0
0.0
0.0057825142105098655
0.009193447178599712
0.011426696348817102
0.012536667061942784
0.012765137212417723
0.011755928777471135
0.009558290222299148
0.006087061364099656
0.0
0.0
0.006083833357899684
0.009580022186289327
0.011846188316477173
0.012960258960239104
0.013015545452260881
0.011991986487997744
0.00992514055419499
0.006375031734890953
0.0
0.0
0.006210393048466508
0.009647934181615135
0.011848484948771719
0.012915535535326757
0.012959918758985538
0.011966112793807517
0.009793018462724838
0.006312217896821045
0.0
0.0
0.006042267559058762
0.009189830918378855
0.011178354034381808
0.012131996896316272
0.012171262137629897
0.011282519768594677
0.009318520990546354
0.006132728983079368
0.0
0.0
0.005250414711525549
0.007760425708235548
0.009492703562591952
0.010238380712855918
0.010276167967606165
0.009592334325565628
0.008049049123368728
0.005502263251984651
0.0
0.0
0.004032832524568342
0.005464992335804074
0.006349501170018043
0.00676918827141051
0.006962264474850365
0.006585313101969964
0.005715398579899012
0.004257525134127857
0.0
0.0
0.0
0.0
0.0
0.0
0.0
0.0
0.0
0.0
0.0