# vtk DataFile Version 2.0
Landlab output
ASCII
DATASET UNSTRUCTURED_GRID

POINTS 200 float
0.0 0.0 0.0
100.0 0.0 0.0
200.0 0.0 0.0
300.0 0.0 0.0
400.0 0.0 0.0
500.0 0.0 0.0
600.0 0.0 0.0
700.0 0.0 0.0
800.0 0.0 0.0
900.0 0.0 0.0
0.0 100.0 0.0
100.0 100.0 0.00029522012403737695
200.0 100.0 0.0005545410522006334
300.0 100.0 0.0007589922609640761
400.0 100.0 0.0008753057083993796
500.0 100.0 0.0008986637836585189
600.0 100.0 0.0008214651271206704
700.0 100.0 0.0006412379666874132
800.0 100.0 0.00036037886932292746
900.0 100.0 0.0
0.0 200.0 0.0
100.0 200.0 0.0006354700682883875
200.0 200.0 0.001181048688440924
300.0 200.0 0.0016326147556616044
400.0 200.0 0.0018731449023262653
500.0 200.0 0.001927414379355186
600.0 200.0 0.0017723054564265084
700.0 200.0 0.001403460633856208
800.0 200.0 0.0008126551646324755
900.0 200.0 0.0
0.0 300.0 0.0
100.0 300.0 0.0010871061366070308
200.0 300.0 0.0019425088806004182
300.0 300.0 0.0025572212333518085
400.0 300.0 0.0029068697865731793
500.0 300.0 0.0030185242976043477
600.0 300.0 0.0027833852357234353
700.0 300.0 0.0022221606985488892
800.0 300.0 0.001302005654384336
900.0 300.0 0.0
0.0 400.0 0.0
100.0 400.0 0.0015948159246825168
200.0 400.0 0.0027962624687063622
300.0 400.0 0.0036197597281377152
400.0 400.0 0.004064318300343544
500.0 400.0 0.004129190162335224
600.0 400.0 0.0037870557142998585
700.0 400.0 0.0030517806381433034
800.0 400.0 0.0017946006378290352
900.0 400.0 0.0
0.0 500.0 0.0
100.0 500.0 0.0021263021523203773
200.0 500.0 0.0036968425086431325
300.0 500.0 0.004753861915548457
400.0 500.0 0.00530669878977852
500.0 500.0 0.00535546987317474
600.0 500.0 0.004883063405929039
700.0 500.0 0.003865778578490681
800.0 500.0 0.00224876591881888
900.0 500.0 0.0
0.0 600.0 0.0
100.0 600.0 0.0026498205191809827
200.0 600.0 0.004596655391281694
300.0 600.0 0.005907370067017635
400.0 600.0 0.006584195592421411
500.0 600.0 0.0066339429773663436
600.0 600.0 0.006039062181128686
700.0 600.0 0.004768458114945464
800.0 600.0 0.0027741753583535715
900.0 600.0 0.0
0.0 700.0 0.0
100.0 700.0 0.00311477283154032
200.0 700.0 0.0054311455280045455
300.0 700.0 0.007031832185229812
400.0 700.0 0.00784452829846423
500.0 700.0 0.007912769436159282
600.0 700.0 0.007207743627103948
700.0 700.0 0.005696621288437606
800.0 700.0 0.0033211501824191095
900.0 700.0 0.0
0.0 800.0 0.0
100.0 800.0 0.0036309876762904585
200.0 800.0 0.0063046183610280665
300.0 800.0 0.008094922839511527
400.0 800.0 0.009024821629695392
500.0 800.0 0.009143736999118994
600.0 800.0 0.00833974696726808
700.0 800.0 0.0066060437550212354
800.0 800.0 0.003860420803507202
900.0 800.0 0.0
0.0 900.0 0.0
100.0 900.0 0.00415818394710956
200.0 900.0 0.007191451313578269
300.0 900.0 0.009196703401337854
400.0 900.0 0.010221715777303662
500.0 900.0 0.010290270424889511
600.0 900.0 0.009373410743354498
700.0 900.0 0.007457835823598632
800.0 900.0 0.004365156574237106
900.0 900.0 0.0
0.0 1000.0 0.0
100.0 1000.0 0.004666703951030799
200.0 1000.0 0.008047490494690987
300.0 1000.0 0.010268521142460497
400.0 1000.0 0.011390824044193188
500.0 1000.0 0.011441344594229083
600.0 1000.0 0.010402178435751882
700.0 1000.0 0.00822154140482579
800.0 1000.0 0.004792533994344706
900.0 1000.0 0.0
0.0 1100.0 0.0
100.0 1100.0 0.0051186442466417455
200.0 1100.0 0.008812350334652063
300.0 1100.0 0.011239387750876125
400.0 1100.0 0.012459542915420658
500.0 1100.0 0.012509904164214736
600.0 1100.0 0.011372640376006654
700.0 1100.0 0.008985938739173556
800.0 1100.0 0.005244171059670331
900.0 1100.0 0.0
0.0 1200.0 0.0
100.0 1200.0 0.005448649407569
200.0 1200.0 0.009393470161255064
300.0 1200.0 0.012022700494276738
400.0 1200.0 0.013331713422639292
500.0 1200.0 0.013399716340865064
600.0 1200.0 0.012198004808234483
700.0 1200.0 0.009658248342616142
800.0 1200.0 0.005654567279914344
900.0 1200.0 0.0
0.0 1300.0 0.0
100.0 1300.0 0.005741508556246295
200.0 1300.0 0.009848506598191465
300.0 1300.0 0.012523802791057607
400.0 1300.0 0.013873774316892407
500.0 1300.0 0.013991491607115328
600.0 1300.0 0.012765573071975206
700.0 1300.0 0.01014642189338593
800.0 1300.0 0.005968628912363893
900.0 1300.0 0.0
0.0 1400.0 0.0
100.0 1400.0 0.005918168330014798
200.0 1400.0 0.010080579070216039
300.0 1400.0 0.012748865185590577
400.0 1400.0 0.014076850065243368
500.0 1400.0 0.014142703477557162
600.0 1400.0 0.012918665088987901
700.0 1400.0 0.01033897901577969
800.0 1400.0 0.006119853989382751
900.0 1400.0 0.0
0.0 1500.0 0.0
100.0 1500.0 0.005890362401418662
200.0 1500.0 0.009940157398261132
300.0 1500.0 0.01249323973978858
400.0 1500.0 0.013745545902394291
500.0 1500.0 0.01379066028160936
600.0 1500.0 0.012612992967602927
700.0 1500.0 0.010097958683561638
800.0 1500.0 0.006005331549349485
900.0 1500.0 0.0
0.0 1600.0 0.0
100.0 1600.0 0.005530319669305045
200.0 1600.0 0.009211998749436016
300.0 1600.0 0.011493291489476688
400.0 1600.0 0.012597607790590286
500.0 1600.0 0.012637535455213079
600.0 1600.0 0.011599470751426155
700.0 1600.0 0.009353315069250025
800.0 1600.0 0.00563392441328139
900.0 1600.0 0.0
0.0 1700.0 0.0
100.0 1700.0 0.004627325044480278
200.0 1700.0 0.007573227310307528
300.0 1700.0 0.009393986012820599
400.0 1700.0 0.010254580644649451
500.0 1700.0 0.010302884777135278
600.0 1700.0 0.009517580312877683
700.0 1700.0 0.007774131430709066
800.0 1700.0 0.004788667255370566
900.0 1700.0 0.0
0.0 1800.0 0.0
100.0 1800.0 0.0030065096792335367
200.0 1800.0 0.0047312072319668705
300.0 1800.0 0.005735080901885632
400.0 1800.0 0.006219194709158162
500.0 1800.0 0.0063005482967874275
600.0 1800.0 0.005880622188723908
700.0 1800.0 0.004902198854982697
800.0 1800.0 0.003141150779882607
900.0 1800.0 0.0
0.0 1900.0 0.0
100.0 1900.0 0.0
200.0 1900.0 0.0
300.0 1900.0 0.0
400.0 1900.0 0.0
500.0 1900.0 0.0
600.0 1900.0 0.0
700.0 1900.0 0.0
800.0 1900.0 0.0
900.0 1900.0 0.0

CELLS 171 855
4 11 10 0 1
4 12 11 1 2
4 13 12 2 3
4 14 13 3 4
4 15 14 4 5
4 16 15 5 6
4 17 16 6 7
4 18 17 7 8
4 19 18 8 9
4 21 20 10 11
4 22 21 11 12
4 23 22 12 13
4 24 23 13 14
4 25 24 14 15
4 26 25 15 16
4 27 26 16 17
4 28 27 17 18
4 29 28 18 19
4 31 30 20 21
4 32 31 21 22
4 33 32 22 23
4 34 33 23 24
4 35 34 24 25
4 36 35 25 26
4 37 36 26 27
4 38 37 27 28
4 39 38 28 29
4 41 40 30 31
4 42 41 31 32
4 43 42 32 33
4 44 43 33 34
4 45 44 34 35
4 46 45 35 36
4 47 46 36 37
4 48 47 37 38
4 49 48 38 39
4 51 50 40 41
4 52 51 41 42
4 53 52 42 43
4 54 53 43 44
4 55 54 44 45
4 56 55 45 46
4 57 56 46 47
4 58 57 47 48
4 59 58 48 49
4 61 60 50 51
4 62 61 51 52
4 63 62 52 53
4 64 63 53 54
4 65 64 54 55
4 66 65 55 56
4 67 66 56 57
4 68 67 57 58
4 69 68 58 59
4 71 70 60 61
4 72 71 61 62
4 73 72 62 63
4 74 73 63 64
4 75 74 64 65
4 76 75 65 66
4 77 76 66 67
4 78 77 67 68
4 79 78 68 69
4 81 80 70 71
4 82 81 71 72
4 83 82 72 73
4 84 83 73 74
4 85 84 74 75
4 86 85 75 76
4 87 86 76 77
4 88 87 77 78
4 89 88 78 79
4 91 90 80 81
4 92 91 81 82
4 93 92 82 83
4 94 93 83 84
4 95 94 84 85
4 96 95 85 86
4 97 96 86 87
4 98 97 87 88
4 99 98 88 89
4 101 100 90 91
4 102 101 91 92
4 103 102 92 93
4 104 103 93 94
4 105 104 94 95
4 106 105 95 96
4 107 106 96 97
4 108 107 97 98
4 109 108 98 99
4 111 110 100 101
4 112 111 101 102
4 113 112 102 103
4 114 113 103 104
4 115 114 104 105
4 116 115 105 106
4 117 116 106 107
4 118 117 107 108
4 119 118 108 109
4 121 120 110 111
4 122 121 111 112
4 123 122 112 113
4 124 123 113 114
4 125 124 114 115
4 126 125 115 116
4 127 126 116 117
4 128 127 117 118
4 129 128 118 119
4 131 130 120 121
4 132 131 121 122
4 133 132 122 123
4 134 133 123 124
4 135 134 124 125
4 136 135 125 126
4 137 136 126 127
4 138 137 127 128
4 139 138 128 129
4 141 140 130 131
4 142 141 131 132
4 143 142 132 133
4 144 143 133 134
4 145 144 134 135
4 146 145 135 136
4 147 146 136 137
4 148 147 137 138
4 149 148 138 139
4 151 150 140 141
4 152 151 141 142
4 153 152 142 143
4 154 153 143 144
4 155 154 144 145
4 156 155 145 146
4 157 156 146 147
4 158 157 147 148
4 159 158 148 149
4 161 160 150 151
4 162 161 151 152
4 163 162 152 153
4 164 163 153 154
4 165 164 154 155
4 166 165 155 156
4 167 166 156 157
4 168 167 157 158
4 169 168 158 159
4 171 170 160 161
4 172 171 161 162
4 173 172 162 163
4 174 173 163 164
4 175 174 164 165
4 176 175 165 166
4 177 176 166 167
4 178 177 167 168
4 179 178 168 169
4 181 180 170 171
4 182 181 171 172
4 183 182 172 173
4 184 183 173 174
4 185 184 174 175
4 186 185 175 176
4 187 186 176 177
4 188 187 177 178
4 189 188 178 179
4 191 190 180 181
4 192 191 181 182
4 193 192 182 183
4 194 193 183 184
4 195 194 184 185
4 196 195 185 186
4 197 196 186 187
4 198 197 187 188
4 199 198 188 189

CELL_TYPES 171
9
9
9
9
9
9
9
9
9
9
9
9
9
9
9
9
9
9
9
9
9
9
9
9
9
9
9
9
9
9
9
9
9
9
9
9
9
9
9
9
9
9
9
9
9
9
9
9
9
9
9
9
9
9
9
9
9
9
9
9
9
9
9
9
9
9
9
9
9
9
9
9
9
9
9
9
9
9
9
9
9
9
9
9
9
9
9
9
9
9
9
9
9
9
9
9
9
9
9
9
9
9
9
9
9
9
9
9
9
9
9
9
9
9
9
9
9
9
9
9
9
9
9
9
9
9
9
9
9
9
9
9
9
9
9
9
9
9
9
9
9
9
9
9
9
9
9
9
9
9
9
9
9
9
9
9
9
9
9
9
9
9
9
9
9
9
9
9
9
9
9

POINT_DATA 200

SCALARS linear_diffusivity float 1
LOOKUP_TABLE default
50000.0
50000.0
50000.0
50000.0
50000.0
50000.0
50000.0
50000.0
50000.0
50000.0
50000.0
50000.0
50000.0
50000.0
50000.0
50000.0
50000.0
50000.0
50000.0
50000.0
50000.0
50000.0
50000.0
50000.0
50000.0
50000.0
50000.0
50000.0
50000.0
50000.0
50000.0
50000.0
50000.0
50000.0
50000.0
50000.0
50000.0
50000.0
50000.0
50000.0
50000.0
50000.0
50000.0
50000.0
50000.0
50000.0
50000.0
50000.0
50000.0
50000.0
50000.0
50000.0
50000.0
50000.0
50000.0
50000.0
50000.0
50000.0
50000.0
50000.0
50000.0
50000.0
50000.0
50000.0
50000.0
50000.0
50000.0
50000.0
50000.0
50000.0
50000.0
50000.0
50000.0
50000.0
50000.0
50000.0
50000.0
50000.0
50000.0
50000.0
50000.0
50000.0
50000.0
50000.0
50000.0
50000.0
50000.0
50000.0
50000.0
50000.0
50000.0
50000.0
50000.0
50000.0
50000.0
50000.0
50000.0
50000.0
50000.0
50000.0
50000.0
50000.0
50000.0
50000.0
50000.0
50000.0
50000.0
50000.0
50000.0
50000.0
50000.0
50000.0
50000.0
50000.0
50000.0
50000.0
50000.0
50000.0
50000.0
50000.0
50000.0
50000.0
50000.0
50000.0
50000.0
50000.0
50000.0
50000.0
50000.0
50000.0
50000.0
50000.0
50000.0
50000.0
50000.0
50000.0
50000.0
50000.0
50000.0
50000.0
50000.0
50000.0
50000.0
50000.0
50000.0
50000.0
50000.0
50000.0
50000.0
50000.0
50000.0
50000.0
50000.0
50000.0
50000.0
50000.0
50000.0
50000.0
50000.0
50000.0
50000.0
50000.0
50000.0
50000.0
50000.0
50000.0
50000.0
50000.0
50000.0
50000.0
50000.0
50000.0
50000.0
50000.0
50000.0
50000.0
50000.0
50000.0
50000.0
50000.0
50000.0
50000.0
50000.0
50000.0
50000.0
50000.0
50000.0
50000.0
50000.0
50000.0
50000.0
50000.0
50000.0
50000.0
50000.0
50000.0
50000.0
50000.0
50000.0
50000.0

SCALARS topographic__elevation float 1
LOOKUP_TABLE default
0.0
0.0
0.0
0.0
0.0
0.0
0.0
0.0
0.0
0.0
0.0
0.00029522012403737695
0.0005545410522006334
0.0007589922609640761
0.0008753057083993796
0.0008986637836585189
0.0008214651271206704
0.0006412379666874132
0.00036037886932292746
0.0
0.0
0.0006354700682883875
0.001181048688440924
0.0016326147556616044
0.0018731449023262653
0.001927414379355186
0.0017723054564265084
0.001403460633856208
0.0008126551646324755
0.0
0.0
0.0010871061366070308
0.0019425088806004182
0.0025572212333518085
0.0029068697865731793
0.0030185242976043477
0.0027833852357234353
0.0022221606985488892
0.001302005654384336
0.0
0.0
0.0015948159246825168
0.0027962624687063622
0.0036197597281377152
0.004064318300343544
0.004129190162335224
0.0037870557142998585
0.0030517806381433034
0.0017946006378290352
0.0
0.0
0.0021263021523203773
0.0036968425086431325
0.004753861915548457
0.00530669878977852
0.00535546987317474
0.004883063405929039
0.003865778578490681
0.00224876591881888
0.0
0.0
0.0026498205191809827
0.004596655391281694
0.005907370067017635
0.006584195592421411
0.0066339429773663436
0.006039062181128686
0.004768458114945464
0.0027741753583535715
0.0
0.0
0.00311477283154032
0.0054311455280045455
0.007031832185229812
0.00784452829846423
0.007912769436159282
0.007207743627103948
0.005696621288437606
0.0033211501824191095
0.0
0.0
0.0036309876762904585
0.0063046183610280665
0.008094922839511527
0.009024821629695392
0.009143736999118994
0.00833974696726808
0.0066060437550212354
0.003860420803507202
0.0
0.0
0.00415818394710956
0.007191451313578269
0.009196703401337854
0.010221715777303662
0.010290270424889511
0.009373410743354498
0.007457835823598632
0.004365156574237106
0.0
0.0
0.004666703951030799
0.008047490494690987
0.010268521142460497
0.011390824044193188
0.011441344594229083
0.010402178435751882
0.00822154140482579
0.004792533994344706
0.0
0.0
0.0051186442466417455
0.008812350334652063
0.011239387750876125
0.012459542915420658
0.012509904164214736
0.011372640376006654
0.008985938739173556
0.005244171059670331
0.0
0.0
0.005448649407569
0.009393470161255064
0.012022700494276738
0.013331713422639292
0.013399716340865064
0.012198004808234483
0.009658248342616142
0.005654567279914344
0.0
0.0
0.005741508556246295
0.009848506598191465
0.012523802791057607
0.013873774316892407
0.013991491607115328
0.012765573071975206
0.01014642189338593
0.005968628912363893
0.0
0.0
0.005918168330014798
0.010080579070216039
0.012748865185590577
0.014076850065243368
0.014142703477557162
0.012918665088987901
0.01033897901577969
0.006119853989382751
0.0
0.0
0.005890362401418662
0.009940157398261132
0.01249323973978858
0.013745545902394291
0.01379066028160936
0.012612992967602927
0.010097958683561638
0.006005331549349485
0.0
0.0
0.005530319669305045
0.009211998749436016
0.011493291489476688
0.012597607790590286
0.012637535455213079
0.011599470751426155
0.009353315069250025
0.00563392441328139
0.0
0.0
0.004627325044480278
0.007573227310307528
0.009393986012820599
0.010254580644649451
0.010302884777135278
0.009517580312877683
0.007774131430709066
0.004788667255370566
0.0
0.0
0.0030065096792335367
0.0047312072319668705
0.005735080901885632
0.006219194709158162
0.0063005482967874275
0.005880622188723908
0.004902198854982697
0.003141150779882607
0.0
0.0
0.0
0.0
0.0
0.0
0.0
0.0
0.0
0.0
0.0