# vtk DataFile Version 2.0
Landlab output
ASCII
DATASET UNSTRUCTURED_GRID

POINTS 200 float
0.0 0.0 0.0005488135039273248
100.0 0.0 0.0007151893663724195
200.0 0.0 0.0006027633760716439
300.0 0.0 0.0005448831829968968
400.0 0.0 0.0004236547993389047
500.0 0.0 0.0006458941130666561
600.0 0.0 0.00043758721126269253
700.0 0.0 0.0008917730007820798
800.0 0.0 0.0009636627605010292
900.0 0.0 0.0003834415188257777
0.0 100.0 0.0007917250380826646
100.0 100.0 0.003528894907120735
200.0 100.0 0.003568044560083566
300.0 100.0 0.003925596639243934
400.0 100.0 0.0030710360588487606
500.0 100.0 0.003087129300373813
600.0 100.0 0.0030202183983872276
700.0 100.0 0.0038326198452707013
800.0 100.0 0.003778156741127082
900.0 100.0 0.0008700121482468192
0.0 200.0 0.000978618342232764
100.0 200.0 0.006799158547362045
200.0 200.0 0.0064614793669436725
300.0 200.0 0.006780529175338113
400.0 200.0 0.006118274426262482
500.0 200.0 0.0066399210216835265
600.0 200.0 0.00614335328673264
700.0 200.0 0.006944668921241065
800.0 200.0 0.006521848306837445
900.0 200.0 0.0004146619399905236
0.0 300.0 0.00026455561210462694
100.0 300.0 0.009774233683031815
200.0 300.0 0.009456150336181086
300.0 300.0 0.009568433948220026
400.0 300.0 0.009018789800673093
500.0 300.0 0.00961763549721635
600.0 300.0 0.009612095722459232
700.0 300.0 0.009616933999297583
800.0 300.0 0.009943748075903498
900.0 300.0 0.0006818202991034834
0.0 400.0 0.000359507900573786
100.0 400.0 0.01243703195558922
200.0 400.0 0.012697631198698066
300.0 400.0 0.012060225471497432
400.0 400.0 0.012666766715540588
500.0 400.0 0.012670637869796242
600.0 400.0 0.012210382560716534
700.0 400.0 0.01212892630087858
800.0 400.0 0.012315428347989744
900.0 400.0 0.0003637107709426226
0.0 500.0 0.0005701967704178797
100.0 500.0 0.015438601505924642
200.0 500.0 0.015988373841692174
300.0 500.0 0.015102044810143036
400.0 500.0 0.015208876756238651
500.0 500.0 0.015161309518124456
600.0 500.0 0.01565310832451764
700.0 500.0 0.015253291606876088
800.0 500.0 0.015466310761234149
900.0 500.0 0.00024442559200160273
0.0 600.0 0.0001589695836455197
100.0 600.0 0.01811037513963504
200.0 600.0 0.018656329592070538
300.0 600.0 0.018138182951122395
400.0 600.0 0.018196582361794306
500.0 600.0 0.01836872517084866
600.0 600.0 0.018820993229218284
700.0 600.0 0.0180971012791393
800.0 600.0 0.01883794490106711
900.0 600.0 9.609840789396307e-05
0.0 700.0 0.0009764594650133958
100.0 700.0 0.021468651197266174
200.0 700.0 0.021976761090980214
300.0 700.0 0.021604845519292176
400.0 700.0 0.0217392635796137
500.0 700.0 0.02103918779224419
600.0 700.0 0.021282806962825543
700.0 700.0 0.021120196562437053
800.0 700.0 0.021296140205289877
900.0 700.0 0.00011872771895424406
0.0 800.0 0.000317983179393976
100.0 800.0 0.024414262979790984
200.0 800.0 0.024064147500667002
300.0 800.0 0.024692472118263677
400.0 800.0 0.024566601454443157
500.0 800.0 0.024265389491183377
600.0 800.0 0.02452324805227757
700.0 800.0 0.024093940515232795
800.0 800.0 0.024575946479282847
900.0 800.0 0.0009292961975762141
0.0 900.0 0.0003185689524513237
100.0 900.0 0.02766741038355589
200.0 900.0 0.027131797865092445
300.0 900.0 0.027716327204084987
400.0 900.0 0.02728940609302572
500.0 900.0 0.027183191362159388
600.0 900.0 0.02758651293455326
700.0 900.0 0.027020107549378704
800.0 900.0 0.027828940028341
900.0 900.0 4.695476192547066e-06
0.0 1000.0 0.0006778165367962301
100.0 1000.0 0.030270007966542733
200.0 1000.0 0.03073519402589925
300.0 1000.0 0.030962188544401727
400.0 1000.0 0.03024875314374325
500.0 1000.0 0.030576157334471294
600.0 1000.0 0.030592041931261693
700.0 1000.0 0.03057225190818958
800.0 1000.0 0.03022308163630555
900.0 1000.0 0.000952749011516985
0.0 1100.0 0.00044712537861762736
100.0 1100.0 0.03384640866475647
200.0 1100.0 0.033699479278955086
300.0 1100.0 0.03329743695011235
400.0 1100.0 0.03381379781984578
500.0 1100.0 0.03339650574116025
600.0 1100.0 0.03388110319572686
700.0 1100.0 0.0335812728776199
800.0 1100.0 0.033881735344789436
900.0 1100.0 0.0006925315900777659
0.0 1200.0 0.0007252542798196405
100.0 1200.0 0.03650132438138992
200.0 1200.0 0.036956083636956495
300.0 1200.0 0.03664399019904921
400.0 1200.0 0.03642385504865699
500.0 1200.0 0.03660639321430614
600.0 1200.0 0.03601919319785923
700.0 1200.0 0.036301574820080645
800.0 1200.0 0.03666017353485941
900.0 1200.0 0.00029007760721044406
0.0 1300.0 0.0006180154289988415
100.0 1300.0 0.039428768699364285
200.0 1300.0 0.039135474066719814
300.0 1300.0 0.039298282325699124
400.0 1300.0 0.03956996491084797
500.0 1300.0 0.039590872761349205
600.0 1300.0 0.039574325248666394
700.0 1300.0 0.0396532008225205
800.0 1300.0 0.03965210327071802
900.0 1300.0 0.00043141843543397396
0.0 1400.0 0.000896546595851063
100.0 1400.0 0.04236756185846299
200.0 1400.0 0.04243586492979948
300.0 1400.0 0.042891923354027195
400.0 1400.0 0.042806193989302924
500.0 1400.0 0.04270388858368691
600.0 1400.0 0.042100226886848224
700.0 1400.0 0.042919482617383944
800.0 1400.0 0.04271424129507502
900.0 1400.0 0.0009988470065678664
0.0 1500.0 0.00014944830465799373
100.0 1500.0 0.04586812604560443
200.0 1500.0 0.04516249293896672
300.0 1500.0 0.04561555956334058
400.0 1500.0 0.04512381998305064
500.0 1500.0 0.04584800822958176
600.0 1500.0 0.04580731895763274
700.0 1500.0 0.0455691007431968
800.0 1500.0 0.045407183283510455
900.0 1500.0 6.916699545513805e-05
0.0 1600.0 0.0006974287731445636
100.0 1600.0 0.04845354269948754
200.0 1600.0 0.0487220555997408
300.0 1600.0 0.04886638232670541
400.0 1600.0 0.04897552150490778
500.0 1600.0 0.04885580334253091
600.0 1600.0 0.04801171408391422
700.0 1600.0 0.0483599780669029
800.0 1600.0 0.04872999056474817
900.0 1600.0 0.00017162967726144053
0.0 1700.0 0.0005210366062041293
100.0 1700.0 0.05105433792580815
200.0 1700.0 0.05119999652985699
300.0 1700.0 0.051018521790686694
400.0 1700.0 0.051793697703609365
500.0 1700.0 0.051223924688152615
600.0 1700.0 0.05134535167758892
700.0 1700.0 0.05192808129727988
800.0 1700.0 0.051704414347788816
900.0 1700.0 3.1838929531307844e-05
0.0 1800.0 0.00016469415649791275
100.0 1800.0 0.054621478443920846
200.0 1800.0 0.05457722856579295
300.0 1800.0 0.05423789282377915
400.0 1800.0 0.05493421399612552
500.0 1800.0 0.05461396595398575
600.0 1800.0 0.054535632806229535
700.0 1800.0 0.054589909951457086
800.0 1800.0 0.05473012208182434
900.0 1800.0 0.00031194499547960183
0.0 1900.0 0.0003982210622160919
100.0 1900.0 0.00020984374897512213
200.0 1900.0 0.00018619300588033617
300.0 1900.0 0.0009443723899839336
400.0 1900.0 0.0007395507950492875
500.0 1900.0 0.000490458808617567
600.0 1900.0 0.00022741462797332325
700.0 1900.0 0.00025435648177039296
800.0 1900.0 5.802916032387562e-05
900.0 1900.0 0.0004344166255581208

CELLS 171 855
4 11 10 0 1
4 12 11 1 2
4 13 12 2 3
4 14 13 3 4
4 15 14 4 5
4 16 15 5 6
4 17 16 6 7
4 18 17 7 8
4 19 18 8 9
4 21 20 10 11
4 22 21 11 12
4 23 22 12 13
4 24 23 13 14
4 25 24 14 15
4 26 25 15 16
4 27 26 16 17
4 28 27 17 18
4 29 28 18 19
4 31 30 20 21
4 32 31 21 22
4 33 32 22 23
4 34 33 23 24
4 35 34 24 25
4 36 35 25 26
4 37 36 26 27
4 38 37 27 28
4 39 38 28 29
4 41 40 30 31
4 42 41 31 32
4 43 42 32 33
4 44 43 33 34
4 45 44 34 35
4 46 45 35 36
4 47 46 36 37
4 48 47 37 38
4 49 48 38 39
4 51 50 40 41
4 52 51 41 42
4 53 52 42 43
4 54 53 43 44
4 55 54 44 45
4 56 55 45 46
4 57 56 46 47
4 58 57 47 48
4 59 58 48 49
4 61 60 50 51
4 62 61 51 52
4 63 62 52 53
4 64 63 53 54
4 65 64 54 55
4 66 65 55 56
4 67 66 56 57
4 68 67 57 58
4 69 68 58 59
4 71 70 60 61
4 72 71 61 62
4 73 72 62 63
4 74 73 63 64
4 75 74 64 65
4 76 75 65 66
4 77 76 66 67
4 78 77 67 68
4 79 78 68 69
4 81 80 70 71
4 82 81 71 72
4 83 82 72 73
4 84 83 73 74
4 85 84 74 75
4 86 85 75 76
4 87 86 76 77
4 88 87 77 78
4 89 88 78 79
4 91 90 80 81
4 92 91 81 82
4 93 92 82 83
4 94 93 83 84
4 95 94 84 85
4 96 95 85 86
4 97 96 86 87
4 98 97 87 88
4 99 98 88 89
4 101 100 90 91
4 102 101 91 92
4 103 102 92 93
4 104 103 93 94
4 105 104 94 95
4 106 105 95 96
4 107 106 96 97
4 108 107 97 98
4 109 108 98 99
4 111 110 100 101
4 112 111 101 102
4 113 112 102 103
4 114 113 103 104
4 115 114 104 105
4 116 115 105 106
4 117 116 106 107
4 118 117 107 108
4 119 118 108 109
4 121 120 110 111
4 122 121 111 112
4 123 122 112 113
4 124 123 113 114
4 125 124 114 115
4 126 125 115 116
4 127 126 116 117
4 128 127 117 118
4 129 128 118 119
4 131 130 120 121
4 132 131 121 122
4 133 132 122 123
4 134 133 123 124
4 135 134 124 125
4 136 135 125 126
4 137 136 126 127
4 138 137 127 128
4 139 138 128 129
4 141 140 130 131
4 142 141 131 132
4 143 142 132 133
4 144 143 133 134
4 145 144 134 135
4 146 145 135 136
4 147 146 136 137
4 148 147 137 138
4 149 148 138 139
4 151 150 140 141
4 152 151 141 142
4 153 152 142 143
4 154 153 143 144
4 155 154 144 145
4 156 155 145 146
4 157 156 146 147
4 158 157 147 148
4 159 158 148 149
4 161 160 150 151
4 162 161 151 152
4 163 162 152 153
4 164 163 153 154
4 165 164 154 155
4 166 165 155 156
4 167 166 156 157
4 168 167 157 158
4 169 168 158 159
4 171 170 160 161
4 172 171 161 162
4 173 172 162 163
4 174 173 163 164
4 175 174 164 165
4 176 175 165 166
4 177 176 166 167
4 178 177 167 168
4 179 178 168 169
4 181 180 170 171
4 182 181 171 172
4 183 182 172 173
4 184 183 173 174
4 185 184 174 175
4 186 185 175 176
4 187 186 176 177
4 188 187 177 178
4 189 188 178 179
4 191 190 180 181
4 192 191 181 182
4 193 192 182 183
4 194 193 183 184
4 195 194 184 185
4 196 195 185 186
4 197 196 186 187
4 198 197 187 188
4 199 198 188 189

CELL_TYPES 171
9
9
9
9
9
9
9
9
9
9
9
9
9
9
9
9
9
9
9
9
9
9
9
9
9
9
9
9
9
9
9
9
9
9
9
9
9
9
9
9
9
9
9
9
9
9
9
9
9
9
9
9
9
9
9
9
9
9
9
9
9
9
9
9
9
9
9
9
9
9
9
9
9
9
9
9
9
9
9
9
9
9
9
9
9
9
9
9
9
9
9
9
9
9
9
9
9
9
9
9
9
9
9
9
9
9
9
9
9
9
9
9
9
9
9
9
9
9
9
9
9
9
9
9
9
9
9
9
9
9
9
9
9
9
9
9
9
9
9
9
9
9
9
9
9
9
9
9
9
9
9
9
9
9
9
9
9
9
9
9
9
9
9
9
9
9
9
9
9
9
9

POINT_DATA 200

SCALARS topographic__elevation float 1
LOOKUP_TABLE default
0.0005488135039273248
0.0007151893663724195
0.0006027633760716439
0.0005448831829968968
0.0004236547993389047
0.0006458941130666561
0.00043758721126269253
0.0008917730007820798
0.0009636627605010292
0.0003834415188257777
0.0007917250380826646
0.003528894907120735
0.003568044560083566
0.003925596639243934
0.0030710360588487606
0.003087129300373813
0.0030202183983872276
0.0038326198452707013
0.003778156741127082
0.0008700121482468192
0.000978618342232764
0.006799158547362045
0.0064614793669436725
0.006780529175338113
0.006118274426262482
0.0066399210216835265
0.00614335328673264
0.006944668921241065
0.006521848306837445
0.0004146619399905236
0.00026455561210462694
0.009774233683031815
0.009456150336181086
0.009568433948220026
0.009018789800673093
0.00961763549721635
0.009612095722459232
0.009616933999297583
0.009943748075903498
0.0006818202991034834
0.000359507900573786
0.01243703195558922
0.012697631198698066
0.012060225471497432
0.012666766715540588
0.012670637869796242
0.012210382560716534
0.01212892630087858
0.012315428347989744
0.0003637107709426226
0.0005701967704178797
0.015438601505924642
0.015988373841692174
0.015102044810143036
0.015208876756238651
0.015161309518124456
0.01565310832451764
0.015253291606876088
0.015466310761234149
0.00024442559200160273
0.0001589695836455197
0.01811037513963504
0.018656329592070538
0.018138182951122395
0.018196582361794306
0.01836872517084866
0.018820993229218284
0.0180971012791393
0.01883794490106711
9.609840789396307e-05
0.0009764594650133958
0.021468651197266174
0.021976761090980214
0.021604845519292176
0.0217392635796137
0.02103918779224419
0.021282806962825543
0.021120196562437053
0.021296140205289877
0.00011872771895424406
0.000317983179393976
0.024414262979790984
0.024064147500667002
0.024692472118263677
0.024566601454443157
0.024265389491183377
0.02452324805227757
0.024093940515232795
0.024575946479282847
0.0009292961975762141
0.0003185689524513237
0.02766741038355589
0.027131797865092445
0.027716327204084987
0.02728940609302572
0.027183191362159388
0.02758651293455326
0.027020107549378704
0.027828940028341
4.695476192547066e-06
0.0006778165367962301
0.030270007966542733
0.03073519402589925
0.030962188544401727
0.03024875314374325
0.030576157334471294
0.030592041931261693
0.03057225190818958
0.03022308163630555
0.000952749011516985
0.00044712537861762736
0.03384640866475647
0.033699479278955086
0.03329743695011235
0.03381379781984578
0.03339650574116025
0.03388110319572686
0.0335812728776199
0.033881735344789436
0.0006925315900777659
0.0007252542798196405
0.03650132438138992
0.036956083636956495
0.03664399019904921
0.03642385504865699
0.03660639321430614
0.03601919319785923
0.036301574820080645
0.03666017353485941
0.00029007760721044406
0.0006180154289988415
0.039428768699364285
0.039135474066719814
0.039298282325699124
0.03956996491084797
0.039590872761349205
0.039574325248666394
0.0396532008225205
0.03965210327071802
0.00043141843543397396
0.000896546595851063
0.04236756185846299
0.04243586492979948
0.042891923354027195
0.042806193989302924
0.04270388858368691
0.042100226886848224
0.042919482617383944
0.04271424129507502
0.0009988470065678664
0.00014944830465799373
0.04586812604560443
0.04516249293896672
0.04561555956334058
0.04512381998305064
0.04584800822958176
0.04580731895763274
0.0455691007431968
0.045407183283510455
6.916699545513805e-05
0.0006974287731445636
0.04845354269948754
0.0487220555997408
0.04886638232670541
0.04897552150490778
0.04885580334253091
0.04801171408391422
0.0483599780669029
0.04872999056474817
0.00017162967726144053
0.0005210366062041293
0.05105433792580815
0.05119999652985699
0.051018521790686694
0.051793697703609365
0.051223924688152615
0.05134535167758892
0.05192808129727988
0.051704414347788816
3.1838929531307844e-05
0.00016469415649791275
0.054621478443920846
0.05457722856579295
0.05423789282377915
0.05493421399612552
0.05461396595398575
0.054535632806229535
0.054589909951457086
0.05473012208182434
0.00031194499547960183
0.0003982210622160919
0.00020984374897512213
0.00018619300588033617
0.0009443723899839336
0.0007395507950492875
0.000490458808617567
0.00022741462797332325
0.00025435648177039296
5.802916032387562e-05
0.0004344166255581208