# vtk DataFile Version 2.0
Landlab output
ASCII
DATASET UNSTRUCTURED_GRID

POINTS 200 float
0.0 0.0 0.0005488135039273248
100.0 0.0 0.0007151893663724195
200.0 0.0 0.0006027633760716439
300.0 0.0 0.0005448831829968968
400.0 0.0 0.0004236547993389047
500.0 0.0 0.0006458941130666561
600.0 0.0 0.00043758721126269253
700.0 0.0 0.0008917730007820798
800.0 0.0 0.0009636627605010292
900.0 0.0 0.0003834415188257777
0.0 100.0 0.0007917250380826646
100.0 100.0 0.0025288949129628337
200.0 100.0 0.0025680445593168335
300.0 100.0 0.0029255966391018877
400.0 100.0 0.002071036058577754
500.0 100.0 0.002087129300095649
600.0 100.0 0.002020218398246622
700.0 100.0 0.002832619844259026
800.0 100.0 0.0027781567460342708
900.0 100.0 0.0008700121482468192
0.0 200.0 0.000978618342232764
100.0 200.0 0.004799158554607651
200.0 200.0 0.004461479364275258
300.0 200.0 0.004780529175829915
400.0 200.0 0.004118274426077429
500.0 200.0 0.0046399210215110395
600.0 200.0 0.004143353287133451
700.0 200.0 0.004944668918739506
800.0 200.0 0.004521848313431946
900.0 200.0 0.0004146619399905236
0.0 300.0 0.00026455561210462694
100.0 300.0 0.006774233686786964
200.0 300.0 0.00645615033375437
300.0 300.0 0.0065684339486119046
400.0 300.0 0.0060187898005404
500.0 300.0 0.006617635497115764
600.0 300.0 0.006612095722722453
700.0 300.0 0.006616933997385378
800.0 300.0 0.006943748078393958
900.0 300.0 0.0006818202991034834
0.0 400.0 0.000359507900573786
100.0 400.0 0.008437031956604755
200.0 400.0 0.00869763119666942
300.0 400.0 0.00806022547171658
400.0 400.0 0.008666766715455214
500.0 400.0 0.008670637869683022
600.0 400.0 0.008210382561011243
700.0 400.0 0.008128926298698182
800.0 400.0 0.008315428350587312
900.0 400.0 0.0003637107709426226
0.0 500.0 0.0005701967704178797
100.0 500.0 0.010438601510054477
200.0 500.0 0.01098837383937336
300.0 500.0 0.010102044810520365
400.0 500.0 0.010208876756136843
500.0 500.0 0.010161309517990828
600.0 500.0 0.010653108325008993
700.0 500.0 0.010253291604323325
800.0 500.0 0.010466310766717347
900.0 500.0 0.00024442559200160273
0.0 600.0 0.0001589695836455197
100.0 600.0 0.012110375141746326
200.0 600.0 0.012656329590095584
300.0 600.0 0.01213818295137262
400.0 600.0 0.012196582361702457
500.0 600.0 0.012368725170732273
600.0 600.0 0.012820993229603676
700.0 600.0 0.01209710127691602
800.0 600.0 0.012837944904820153
900.0 600.0 9.609840789396307e-05
0.0 700.0 0.0009764594650133958
100.0 700.0 0.014468651200329108
200.0 700.0 0.014976761088941425
300.0 700.0 0.014604845519618301
400.0 700.0 0.014739263579487925
500.0 700.0 0.014039187792193885
600.0 700.0 0.014282806962916929
700.0 700.0 0.014120196560923975
800.0 700.0 0.014296140204293588
900.0 700.0 0.00011872771895424406
0.0 800.0 0.000317983179393976
100.0 800.0 0.016414262986306223
200.0 800.0 0.016064147498115598
300.0 800.0 0.016692472118808258
400.0 800.0 0.016566601454310208
500.0 800.0 0.016265389491047937
600.0 800.0 0.01652324805284952
700.0 800.0 0.016093940512629353
800.0 800.0 0.016575946486311676
900.0 800.0 0.0009292961975762141
0.0 900.0 0.0003185689524513237
100.0 900.0 0.018667410383943508
200.0 900.0 0.01813179786308754
300.0 900.0 0.01871632720427055
400.0 900.0 0.018289406092945732
500.0 900.0 0.01818319136205463
600.0 900.0 0.018586512934813667
700.0 900.0 0.018020107547204664
800.0 900.0 0.01882894003022634
900.0 900.0 4.695476192547066e-06
0.0 1000.0 0.0006778165367962301
100.0 1000.0 0.020270007970349134
200.0 1000.0 0.02073519402352754
300.0 1000.0 0.020962188544815442
400.0 1000.0 0.020248753143614698
500.0 1000.0 0.020576157334399728
600.0 1000.0 0.020592041931439223
700.0 1000.0 0.02057225190628052
800.0 1000.0 0.020223081636661925
900.0 1000.0 0.000952749011516985
0.0 1100.0 0.00044712537861762736
100.0 1100.0 0.022846408668914145
200.0 1100.0 0.022699479276628645
300.0 1100.0 0.02229743695053489
400.0 1100.0 0.02281379781974399
500.0 1100.0 0.022396505741001407
600.0 1100.0 0.022881103196364345
700.0 1100.0 0.0225812728748407
800.0 1100.0 0.02288173535207727
900.0 1100.0 0.0006925315900777659
0.0 1200.0 0.0007252542798196405
100.0 1200.0 0.024501324383138012
200.0 1200.0 0.024956083635100965
300.0 1200.0 0.02464399019928299
400.0 1200.0 0.024423855048570024
500.0 1200.0 0.024606393214192675
600.0 1200.0 0.024019193198183242
700.0 1200.0 0.024301574817832284
800.0 1200.0 0.024660173537306714
900.0 1200.0 0.00029007760721044406
0.0 1300.0 0.0006180154289988415
100.0 1300.0 0.02642876870153172
200.0 1300.0 0.02613547406476914
300.0 1300.0 0.026298282325962458
400.0 1300.0 0.026569964910744554
500.0 1300.0 0.026590872761261347
600.0 1300.0 0.02657432524890437
700.0 1300.0 0.026653200820515727
800.0 1300.0 0.02665210327210424
900.0 1300.0 0.00043141843543397396
0.0 1400.0 0.000896546595851063
100.0 1400.0 0.02836756186370098
200.0 1400.0 0.028435864927195437
300.0 1400.0 0.0288919233545204
400.0 1400.0 0.02880619398916452
500.0 1400.0 0.02870388858358545
600.0 1400.0 0.02810022688716622
700.0 1400.0 0.02891948261507958
800.0 1400.0 0.02871424129794592
900.0 1400.0 0.0009988470065678664
0.0 1500.0 0.00014944830465799373
100.0 1500.0 0.03086812605212778
200.0 1500.0 0.030162492936362202
300.0 1500.0 0.03061555956388174
400.0 1500.0 0.030123819982924897
500.0 1500.0 0.03084800822943632
600.0 1500.0 0.03080731895822452
700.0 1500.0 0.03056910074049237
800.0 1500.0 0.030407183290697103
900.0 1500.0 6.916699545513805e-05
0.0 1600.0 0.0006974287731445636
100.0 1600.0 0.032453542693175706
200.0 1600.0 0.03272205559902003
300.0 1600.0 0.032866382326472814
400.0 1600.0 0.03297552150491212
500.0 1600.0 0.03285580334245708
600.0 1600.0 0.03201171408403132
700.0 1600.0 0.03235997806545857
800.0 1600.0 0.03272999056325943
900.0 1600.0 0.00017162967726144053
0.0 1700.0 0.0005210366062041293
100.0 1700.0 0.03405433796606899
200.0 1700.0 0.034199996526881035
300.0 1700.0 0.03401852179295192
400.0 1700.0 0.03479369770342926
500.0 1700.0 0.03422392468802618
600.0 1700.0 0.0343453516796305
700.0 1700.0 0.03492808129468958
800.0 1700.0 0.0347044143852401
900.0 1700.0 3.1838929531307844e-05
0.0 1800.0 0.00016469415649791275
100.0 1800.0 0.03662147841934003
200.0 1800.0 0.03657722858240227
300.0 1800.0 0.03623789282168939
400.0 1800.0 0.036934213997164
500.0 1800.0 0.03661396595508498
600.0 1800.0 0.03653563280387111
700.0 1800.0 0.03658990996876956
800.0 1800.0 0.036730122053941404
900.0 1800.0 0.00031194499547960183
0.0 1900.0 0.0003982210622160919
100.0 1900.0 0.00020984374897512213
200.0 1900.0 0.00018619300588033617
300.0 1900.0 0.0009443723899839336
400.0 1900.0 0.0007395507950492875
500.0 1900.0 0.000490458808617567
600.0 1900.0 0.00022741462797332325
700.0 1900.0 0.00025435648177039296
800.0 1900.0 5.802916032387562e-05
900.0 1900.0 0.0004344166255581208

CELLS 171 855
4 11 10 0 1
4 12 11 1 2
4 13 12 2 3
4 14 13 3 4
4 15 14 4 5
4 16 15 5 6
4 17 16 6 7
4 18 17 7 8
4 19 18 8 9
4 21 20 10 11
4 22 21 11 12
4 23 22 12 13
4 24 23 13 14
4 25 24 14 15
4 26 25 15 16
4 27 26 16 17
4 28 27 17 18
4 29 28 18 19
4 31 30 20 21
4 32 31 21 22
4 33 32 22 23
4 34 33 23 24
4 35 34 24 25
4 36 35 25 26
4 37 36 26 27
4 38 37 27 28
4 39 38 28 29
4 41 40 30 31
4 42 41 31 32
4 43 42 32 33
4 44 43 33 34
4 45 44 34 35
4 46 45 35 36
4 47 46 36 37
4 48 47 37 38
4 49 48 38 39
4 51 50 40 41
4 52 51 41 42
4 53 52 42 43
4 54 53 43 44
4 55 54 44 45
4 56 55 45 46
4 57 56 46 47
4 58 57 47 48
4 59 58 48 49
4 61 60 50 51
4 62 61 51 52
4 63 62 52 53
4 64 63 53 54
4 65 64 54 55
4 66 65 55 56
4 67 66 56 57
4 68 67 57 58
4 69 68 58 59
4 71 70 60 61
4 72 71 61 62
4 73 72 62 63
4 74 73 63 64
4 75 74 64 65
4 76 75 65 66
4 77 76 66 67
4 78 77 67 68
4 79 78 68 69
4 81 80 70 71
4 82 81 71 72
4 83 82 72 73
4 84 83 73 74
4 85 84 74 75
4 86 85 75 76
4 87 86 76 77
4 88 87 77 78
4 89 88 78 79
4 91 90 80 81
4 92 91 81 82
4 93 92 82 83
4 94 93 83 84
4 95 94 84 85
4 96 95 85 86
4 97 96 86 87
4 98 97 87 88
4 99 98 88 89
4 101 100 90 91
4 102 101 91 92
4 103 102 92 93
4 104 103 93 94
4 105 104 94 95
4 106 105 95 96
4 107 106 96 97
4 108 107 97 98
4 109 108 98 99
4 111 110 100 101
4 112 111 101 102
4 113 112 102 103
4 114 113 103 104
4 115 114 104 105
4 116 115 105 106
4 117 116 106 107
4 118 117 107 108
4 119 118 108 109
4 121 120 110 111
4 122 121 111 112
4 123 122 112 113
4 124 123 113 114
4 125 124 114 115
4 126 125 115 116
4 127 126 116 117
4 128 127 117 118
4 129 128 118 119
4 131 130 120 121
4 132 131 121 122
4 133 132 122 123
4 134 133 123 124
4 135 134 124 125
4 136 135 125 126
4 137 136 126 127
4 138 137 127 128
4 139 138 128 129
4 141 140 130 131
4 142 141 131 132
4 143 142 132 133
4 144 143 133 134
4 145 144 134 135
4 146 145 135 136
4 147 146 136 137
4 148 147 137 138
4 149 148 138 139
4 151 150 140 141
4 152 151 141 142
4 153 152 142 143
4 154 153 143 144
4 155 154 144 145
4 156 155 145 146
4 157 156 146 147
4 158 157 147 148
4 159 158 148 149
4 161 160 150 151
4 162 161 151 152
4 163 162 152 153
4 164 163 153 154
4 165 164 154 155
4 166 165 155 156
4 167 166 156 157
4 168 167 157 158
4 169 168 158 159
4 171 170 160 161
4 172 171 161 162
4 173 172 162 163
4 174 173 163 164
4 175 174 164 165
4 176 175 165 166
4 177 176 166 167
4 178 177 167 168
4 179 178 168 169
4 181 180 170 171
4 182 181 171 172
4 183 182 172 173
4 184 183 173 174
4 185 184 174 175
4 186 185 175 176
4 187 186 176 177
4 188 187 177 178
4 189 188 178 179
4 191 190 180 181
4 192 191 181 182
4 193 192 182 183
4 194 193 183 184
4 195 194 184 185
4 196 195 185 186
4 197 196 186 187
4 198 197 187 188
4 199 198 188 189

CELL_TYPES 171
9
9
9
9
9
9
9
9
9
9
9
9
9
9
9
9
9
9
9
9
9
9
9
9
9
9
9
9
9
9
9
9
9
9
9
9
9
9
9
9
9
9
9
9
9
9
9
9
9
9
9
9
9
9
9
9
9
9
9
9
9
9
9
9
9
9
9
9
9
9
9
9
9
9
9
9
9
9
9
9
9
9
9
9
9
9
9
9
9
9
9
9
9
9
9
9
9
9
9
9
9
9
9
9
9
9
9
9
9
9
9
9
9
9
9
9
9
9
9
9
9
9
9
9
9
9
9
9
9
9
9
9
9
9
9
9
9
9
9
9
9
9
9
9
9
9
9
9
9
9
9
9
9
9
9
9
9
9
9
9
9
9
9
9
9
9
9
9
9
9
9

POINT_DATA 200

SCALARS topographic__elevation float 1
LOOKUP_TABLE default
0.0005488135039273248
0.0007151893663724195
0.0006027633760716439
0.0005448831829968968
0.0004236547993389047
0.0006458941130666561
0.00043758721126269253
0.0008917730007820798
0.0009636627605010292
0.0003834415188257777
0.0007917250380826646
0.0025288949129628337
0.0025680445593168335
0.0029255966391018877
0.002071036058577754
0.002087129300095649
0.002020218398246622
0.002832619844259026
0.0027781567460342708
0.0008700121482468192
0.000978618342232764
0.004799158554607651
0.004461479364275258
0.004780529175829915
0.004118274426077429
0.0046399210215110395
0.004143353287133451
0.004944668918739506
0.004521848313431946
0.0004146619399905236
0.00026455561210462694
0.006774233686786964
0.00645615033375437
0.0065684339486119046
0.0060187898005404
0.006617635497115764
0.006612095722722453
0.006616933997385378
0.006943748078393958
0.0006818202991034834
0.000359507900573786
0.008437031956604755
0.00869763119666942
0.00806022547171658
0.008666766715455214
0.008670637869683022
0.008210382561011243
0.008128926298698182
0.008315428350587312
0.0003637107709426226
0.0005701967704178797
0.010438601510054477
0.01098837383937336
0.010102044810520365
0.010208876756136843
0.010161309517990828
0.010653108325008993
0.010253291604323325
0.010466310766717347
0.00024442559200160273
0.0001589695836455197
0.012110375141746326
0.012656329590095584
0.01213818295137262
0.012196582361702457
0.012368725170732273
0.012820993229603676
0.01209710127691602
0.012837944904820153
9.609840789396307e-05
0.0009764594650133958
0.014468651200329108
0.014976761088941425
0.014604845519618301
0.014739263579487925
0.014039187792193885
0.014282806962916929
0.014120196560923975
0.014296140204293588
0.00011872771895424406
0.000317983179393976
0.016414262986306223
0.016064147498115598
0.016692472118808258
0.016566601454310208
0.016265389491047937
0.01652324805284952
0.016093940512629353
0.016575946486311676
0.0009292961975762141
0.0003185689524513237
0.018667410383943508
0.01813179786308754
0.01871632720427055
0.018289406092945732
0.01818319136205463
0.018586512934813667
0.018020107547204664
0.01882894003022634
4.695476192547066e-06
0.0006778165367962301
0.020270007970349134
0.02073519402352754
0.020962188544815442
0.020248753143614698
0.020576157334399728
0.020592041931439223
0.02057225190628052
0.020223081636661925
0.000952749011516985
0.00044712537861762736
0.022846408668914145
0.022699479276628645
0.02229743695053489
0.02281379781974399
0.022396505741001407
0.022881103196364345
0.0225812728748407
0.02288173535207727
0.0006925315900777659
0.0007252542798196405
0.024501324383138012
0.024956083635100965
0.02464399019928299
0.024423855048570024
0.024606393214192675
0.024019193198183242
0.024301574817832284
0.024660173537306714
0.00029007760721044406
0.0006180154289988415
0.02642876870153172
0.02613547406476914
0.026298282325962458
0.026569964910744554
0.026590872761261347
0.02657432524890437
0.026653200820515727
0.02665210327210424
0.00043141843543397396
0.000896546595851063
0.02836756186370098
0.028435864927195437
0.0288919233545204
0.02880619398916452
0.02870388858358545
0.02810022688716622
0.02891948261507958
0.02871424129794592
0.0009988470065678664
0.00014944830465799373
0.03086812605212778
0.030162492936362202
0.03061555956388174
0.030123819982924897
0.03084800822943632
0.03080731895822452
0.03056910074049237
0.030407183290697103
6.916699545513805e-05
0.0006974287731445636
0.032453542693175706
0.03272205559902003
0.032866382326472814
0.03297552150491212
0.03285580334245708
0.03201171408403132
0.03235997806545857
0.03272999056325943
0.00017162967726144053
0.0005210366062041293
0.03405433796606899
0.034199996526881035
0.03401852179295192
0.03479369770342926
0.03422392468802618
0.0343453516796305
0.03492808129468958
0.0347044143852401
3.1838929531307844e-05
0.00016469415649791275
0.03662147841934003
0.03657722858240227
0.03623789282168939
0.036934213997164
0.03661396595508498
0.03653563280387111
0.03658990996876956
0.036730122053941404
0.00031194499547960183
0.0003982210622160919
0.00020984374897512213
0.00018619300588033617
0.0009443723899839336
0.0007395507950492875
0.000490458808617567
0.00022741462797332325
0.00025435648177039296
5.802916032387562e-05
0.0004344166255581208