# vtk DataFile Version 2.0
Landlab output
ASCII
DATASET UNSTRUCTURED_GRID

POINTS 200 float
0.0 0.0 0.0005488135039273248
100.0 0.0 0.0007151893663724195
200.0 0.0 0.0006027633760716439
300.0 0.0 0.0005448831829968968
400.0 0.0 0.0004236547993389047
500.0 0.0 0.0006458941130666561
600.0 0.0 0.00043758721126269253
700.0 0.0 0.0008917730007820798
800.0 0.0 0.0009636627605010292
900.0 0.0 0.0003834415188257777
0.0 100.0 0.0007917250380826646
100.0 100.0 0.0020664872197186756
200.0 100.0 0.0022969063775391133
300.0 100.0 0.002475700858181574
400.0 100.0 0.0025635114474191925
500.0 100.0 0.0026126191950952725
600.0 100.0 0.002487249005522843
700.0 100.0 0.002393539235032421
800.0 100.0 0.0021473636757721186
900.0 100.0 0.0008700121482468192
0.0 200.0 0.000978618342232764
100.0 200.0 0.003416938785639226
200.0 200.0 0.003959057433621303
300.0 200.0 0.004386854864406685
400.0 200.0 0.004617738017016629
500.0 200.0 0.004629489973174142
600.0 200.0 0.0043946045400411185
700.0 200.0 0.003964156589198332
800.0 200.0 0.003317052525345179
900.0 200.0 0.0004146619399905236
0.0 300.0 0.00026455561210462694
100.0 300.0 0.004573146849370032
200.0 300.0 0.005568171163449499
300.0 300.0 0.006273459203788153
400.0 300.0 0.006642237917902208
500.0 300.0 0.0066441415823220214
600.0 300.0 0.00627606195602143
700.0 300.0 0.005584075277080124
800.0 300.0 0.004651585054049964
900.0 300.0 0.0006818202991034834
0.0 400.0 0.000359507900573786
100.0 400.0 0.005907070395548055
200.0 400.0 0.00721563851319435
300.0 400.0 0.00816391230531818
400.0 400.0 0.00865979761478397
500.0 400.0 0.008654963060724724
600.0 400.0 0.008148770498164402
700.0 400.0 0.007193120133655931
800.0 400.0 0.005887544107049943
900.0 400.0 0.0003637107709426226
0.0 500.0 0.0005701967704178797
100.0 500.0 0.007298462083964273
200.0 500.0 0.008887488586470278
300.0 500.0 0.010062216570736589
400.0 500.0 0.010678531070711633
500.0 500.0 0.010667598645502544
600.0 500.0 0.010026405102396916
700.0 500.0 0.008816185388164508
800.0 500.0 0.00716023838838061
900.0 500.0 0.00024442559200160273
0.0 600.0 0.0001589695836455197
100.0 600.0 0.008601446747139425
200.0 600.0 0.010552360723294085
300.0 600.0 0.011961394216279333
400.0 600.0 0.012697954050668498
500.0 600.0 0.01268394031883191
600.0 600.0 0.011915531777716468
700.0 600.0 0.010463708305130713
800.0 600.0 0.008465157075394046
900.0 600.0 9.609840789396307e-05
0.0 700.0 0.0009764594650133958
100.0 700.0 0.01012151524378719
200.0 700.0 0.01225113052756728
300.0 700.0 0.013860695391964807
400.0 700.0 0.01471232682137564
500.0 700.0 0.014699055325210333
600.0 700.0 0.013815729079940341
700.0 700.0 0.01214998278091041
800.0 700.0 0.009866108180295612
900.0 700.0 0.00011872771895424406
0.0 800.0 0.000317983179393976
100.0 800.0 0.01133457543872099
200.0 800.0 0.013873126184297962
300.0 800.0 0.01572789202352975
400.0 800.0 0.016703639095226687
500.0 800.0 0.016696263624158044
600.0 800.0 0.01570831343313745
700.0 800.0 0.013857566654236871
800.0 800.0 0.011408120035654678
900.0 800.0 0.0009292961975762141
0.0 900.0 0.0003185689524513237
100.0 900.0 0.012653460715297991
200.0 900.0 0.015489857048646208
300.0 900.0 0.017561817255079187
400.0 900.0 0.018652575964441094
500.0 900.0 0.01864855006953761
600.0 900.0 0.017551407684500888
700.0 900.0 0.01547480462588325
800.0 900.0 0.012607295255593225
900.0 900.0 4.695476192547066e-06
0.0 1000.0 0.0006778165367962301
100.0 1000.0 0.01404610012642931
200.0 1000.0 0.017084552599336084
300.0 1000.0 0.01933537755978964
400.0 1000.0 0.020525260590185477
500.0 1000.0 0.020522916717024962
600.0 1000.0 0.019332397604724987
700.0 1000.0 0.01709647907723423
800.0 1000.0 0.014116820654859318
900.0 1000.0 0.000952749011516985
0.0 1100.0 0.00044712537861762736
100.0 1100.0 0.015287464910033223
200.0 1100.0 0.01857572309005428
300.0 1100.0 0.020989190346079212
400.0 1100.0 0.022262349849255382
500.0 1100.0 0.022257635929387412
600.0 1100.0 0.02097809646618279
700.0 1100.0 0.018570739691407774
800.0 1100.0 0.015329652755579596
900.0 1100.0 0.0006925315900777659
0.0 1200.0 0.0007252542798196405
100.0 1200.0 0.01653917936268744
200.0 1200.0 0.019937736692633427
300.0 1200.0 0.022452405281802777
400.0 1200.0 0.023779970737823293
500.0 1200.0 0.0237698374734144
600.0 1200.0 0.022420703446807775
700.0 1200.0 0.019874778568375405
800.0 1200.0 0.016396784749080618
900.0 1200.0 0.00029007760721044406
0.0 1300.0 0.0006180154289988415
100.0 1300.0 0.01760167166454455
200.0 1300.0 0.021062480727879074
300.0 1300.0 0.023615316167288528
400.0 1300.0 0.024961031695411293
500.0 1300.0 0.02494677877159416
600.0 1300.0 0.0235726881292388
700.0 1300.0 0.02098972129149127
800.0 1300.0 0.017488035734629405
900.0 1300.0 0.00043141843543397396
0.0 1400.0 0.000896546595851063
100.0 1400.0 0.018524507310220394
200.0 1400.0 0.021865720232269563
300.0 1400.0 0.02435280153688916
400.0 1400.0 0.025663351285336207
500.0 1400.0 0.025644844876757462
600.0 1400.0 0.02430099574948512
700.0 1400.0 0.021793895678112466
800.0 1400.0 0.01847170881640946
900.0 1400.0 0.0009988470065678664
0.0 1500.0 0.00014944830465799373
100.0 1500.0 0.019033291779078695
200.0 1500.0 0.022221520772279665
300.0 1500.0 0.02453695787286548
400.0 1500.0 0.02574521696496191
500.0 1500.0 0.025718740122265122
600.0 1500.0 0.024462684833623946
700.0 1500.0 0.022111576163995415
800.0 1500.0 0.01890525127820542
900.0 1500.0 6.916699545513805e-05
0.0 1600.0 0.0006974287731445636
100.0 1600.0 0.019539928357772296
200.0 1600.0 0.022153223422275298
300.0 1600.0 0.024103166616356666
400.0 1600.0 0.025116527018937747
500.0 1600.0 0.025076918718757234
600.0 1600.0 0.02399429274893307
700.0 1600.0 0.021987572904781913
800.0 1600.0 0.01927078412621687
900.0 1600.0 0.00017162967726144053
0.0 1700.0 0.0005210366062041293
100.0 1700.0 0.01964553768030912
200.0 1700.0 0.02157617203148582
300.0 1700.0 0.023045687798187102
400.0 1700.0 0.02378055778067499
500.0 1700.0 0.023717863855187427
600.0 1700.0 0.022889716248900505
700.0 1700.0 0.021401523641440927
800.0 1700.0 0.019388444981426216
900.0 1700.0 3.1838929531307844e-05
0.0 1800.0 0.00016469415649791275
100.0 1800.0 0.019461031104969773
200.0 1800.0 0.020559708447297362
300.0 1800.0 0.021523448301902
400.0 1800.0 0.021888532868805474
500.0 1800.0 0.02177064074707113
600.0 1800.0 0.021245772351937475
700.0 1800.0 0.020439822906159047
800.0 1800.0 0.01936564619769891
900.0 1800.0 0.00031194499547960183
0.0 1900.0 0.0003982210622160919
100.0 1900.0 0.00020984374897512213
200.0 1900.0 0.00018619300588033617
300.0 1900.0 0.0009443723899839336
400.0 1900.0 0.0007395507950492875
500.0 1900.0 0.000490458808617567
600.0 1900.0 0.00022741462797332325
700.0 1900.0 0.00025435648177039296
800.0 1900.0 5.802916032387562e-05
900.0 1900.0 0.0004344166255581208

CELLS 171 855
4 11 10 0 1
4 12 11 1 2
4 13 12 2 3
4 14 13 3 4
4 15 14 4 5
4 16 15 5 6
4 17 16 6 7
4 18 17 7 8
4 19 18 8 9
4 21 20 10 11
4 22 21 11 12
4 23 22 12 13
4 24 23 13 14
4 25 24 14 15
4 26 25 15 16
4 27 26 16 17
4 28 27 17 18
4 29 28 18 19
4 31 30 20 21
4 32 31 21 22
4 33 32 22 23
4 34 33 23 24
4 35 34 24 25
4 36 35 25 26
4 37 36 26 27
4 38 37 27 28
4 39 38 28 29
4 41 40 30 31
4 42 41 31 32
4 43 42 32 33
4 44 43 33 34
4 45 44 34 35
4 46 45 35 36
4 47 46 36 37
4 48 47 37 38
4 49 48 38 39
4 51 50 40 41
4 52 51 41 42
4 53 52 42 43
4 54 53 43 44
4 55 54 44 45
4 56 55 45 46
4 57 56 46 47
4 58 57 47 48
4 59 58 48 49
4 61 60 50 51
4 62 61 51 52
4 63 62 52 53
4 64 63 53 54
4 65 64 54 55
4 66 65 55 56
4 67 66 56 57
4 68 67 57 58
4 69 68 58 59
4 71 70 60 61
4 72 71 61 62
4 73 72 62 63
4 74 73 63 64
4 75 74 64 65
4 76 75 65 66
4 77 76 66 67
4 78 77 67 68
4 79 78 68 69
4 81 80 70 71
4 82 81 71 72
4 83 82 72 73
4 84 83 73 74
4 85 84 74 75
4 86 85 75 76
4 87 86 76 77
4 88 87 77 78
4 89 88 78 79
4 91 90 80 81
4 92 91 81 82
4 93 92 82 83
4 94 93 83 84
4 95 94 84 85
4 96 95 85 86
4 97 96 86 87
4 98 97 87 88
4 99 98 88 89
4 101 100 90 91
4 102 101 91 92
4 103 102 92 93
4 104 103 93 94
4 105 104 94 95
4 106 105 95 96
4 107 106 96 97
4 108 107 97 98
4 109 108 98 99
4 111 110 100 101
4 112 111 101 102
4 113 112 102 103
4 114 113 103 104
4 115 114 104 105
4 116 115 105 106
4 117 116 106 107
4 118 117 107 108
4 119 118 108 109
4 121 120 110 111
4 122 121 111 112
4 123 122 112 113
4 124 123 113 114
4 125 124 114 115
4 126 125 115 116
4 127 126 116 117
4 128 127 117 118
4 129 128 118 119
4 131 130 120 121
4 132 131 121 122
4 133 132 122 123
4 134 133 123 124
4 135 134 124 125
4 136 135 125 126
4 137 136 126 127
4 138 137 127 128
4 139 138 128 129
4 141 140 130 131
4 142 141 131 132
4 143 142 132 133
4 144 143 133 134
4 145 144 134 135
4 146 145 135 136
4 147 146 136 137
4 148 147 137 138
4 149 148 138 139
4 151 150 140 141
4 152 151 141 142
4 153 152 142 143
4 154 153 143 144
4 155 154 144 145
4 156 155 145 146
4 157 156 146 147
4 158 157 147 148
4 159 158 148 149
4 161 160 150 151
4 162 161 151 152
4 163 162 152 153
4 164 163 153 154
4 165 164 154 155
4 166 165 155 156
4 167 166 156 157
4 168 167 157 158
4 169 168 158 159
4 171 170 160 161
4 172 171 161 162
4 173 172 162 163
4 174 173 163 164
4 175 174 164 165
4 176 175 165 166
4 177 176 166 167
4 178 177 167 168
4 179 178 168 169
4 181 180 170 171
4 182 181 171 172
4 183 182 172 173
4 184 183 173 174
4 185 184 174 175
4 186 185 175 176
4 187 186 176 177
4 188 187 177 178
4 189 188 178 179
4 191 190 180 181
4 192 191 181 182
4 193 192 182 183
4 194 193 183 184
4 195 194 184 185
4 196 195 185 186
4 197 196 186 187
4 198 197 187 188
4 199 198 188 189

CELL_TYPES 171
9
9
9
9
9
9
9
9
9
9
9
9
9
9
9
9
9
9
9
9
9
9
9
9
9
9
9
9
9
9
9
9
9
9
9
9
9
9
9
9
9
9
9
9
9
9
9
9
9
9
9
9
9
9
9
9
9
9
9
9
9
9
9
9
9
9
9
9
9
9
9
9
9
9
9
9
9
9
9
9
9
9
9
9
9
9
9
9
9
9
9
9
9
9
9
9
9
9
9
9
9
9
9
9
9
9
9
9
9
9
9
9
9
9
9
9
9
9
9
9
9
9
9
9
9
9
9
9
9
9
9
9
9
9
9
9
9
9
9
9
9
9
9
9
9
9
9
9
9
9
9
9
9
9
9
9
9
9
9
9
9
9
9
9
9
9
9
9
9
9
9

POINT_DATA 200

SCALARS linear_diffusivity float 1
LOOKUP_TABLE default
50000.0
50000.0
50000.0
50000.0
50000.0
50000.0
50000.0
50000.0
50000.0
50000.0
50000.0
50000.0
50000.0
50000.0
50000.0
50000.0
50000.0
50000.0
50000.0
50000.0
50000.0
50000.0
50000.0
50000.0
50000.0
50000.0
50000.0
50000.0
50000.0
50000.0
50000.0
50000.0
50000.0
50000.0
50000.0
50000.0
50000.0
50000.0
50000.0
50000.0
50000.0
50000.0
50000.0
50000.0
50000.0
50000.0
50000.0
50000.0
50000.0
50000.0
50000.0
50000.0
50000.0
50000.0
50000.0
50000.0
50000.0
50000.0
50000.0
50000.0
50000.0
50000.0
50000.0
50000.0
50000.0
50000.0
50000.0
50000.0
50000.0
50000.0
50000.0
50000.0
50000.0
50000.0
50000.0
50000.0
50000.0
50000.0
50000.0
50000.0
50000.0
50000.0
50000.0
50000.0
50000.0
50000.0
50000.0
50000.0
50000.0
50000.0
50000.0
50000.0
50000.0
50000.0
50000.0
50000.0
50000.0
50000.0
50000.0
50000.0
50000.0
50000.0
50000.0
50000.0
50000.0
50000.0
50000.0
50000.0
50000.0
50000.0
50000.0
50000.0
50000.0
50000.0
50000.0
50000.0
50000.0
50000.0
50000.0
50000.0
50000.0
50000.0
50000.0
50000.0
50000.0
50000.0
50000.0
50000.0
50000.0
50000.0
50000.0
50000.0
50000.0
50000.0
50000.0
50000.0
50000.0
50000.0
50000.0
50000.0
50000.0
50000.0
50000.0
50000.0
50000.0
50000.0
50000.0
50000.0
50000.0
50000.0
50000.0
50000.0
50000.0
50000.0
50000.0
50000.0
50000.0
50000.0
50000.0
50000.0
50000.0
50000.0
50000.0
50000.0
50000.0
50000.0
50000.0
50000.0
50000.0
50000.0
50000.0
50000.0
50000.0
50000.0
50000.0
50000.0
50000.0
50000.0
50000.0
50000.0
50000.0
50000.0
50000.0
50000.0
50000.0
50000.0
50000.0
50000.0
50000.0
50000.0
50000.0
50000.0
50000.0
50000.0
50000.0
50000.0
50000.0
50000.0
50000.0
50000.0

SCALARS topographic__elevation float 1
LOOKUP_TABLE default
0.0005488135039273248
0.0007151893663724195
0.0006027633760716439
0.0005448831829968968
0.0004236547993389047
0.0006458941130666561
0.00043758721126269253
0.0008917730007820798
0.0009636627605010292
0.0003834415188257777
0.0007917250380826646
0.0020664872197186756
0.0022969063775391133
0.002475700858181574
0.0025635114474191925
0.0026126191950952725
0.002487249005522843
0.002393539235032421
0.0021473636757721186
0.0008700121482468192
0.000978618342232764
0.003416938785639226
0.003959057433621303
0.004386854864406685
0.004617738017016629
0.004629489973174142
0.0043946045400411185
0.003964156589198332
0.003317052525345179
0.0004146619399905236
0.00026455561210462694
0.004573146849370032
0.005568171163449499
0.006273459203788153
0.006642237917902208
0.0066441415823220214
0.00627606195602143
0.005584075277080124
0.004651585054049964
0.0006818202991034834
0.000359507900573786
0.005907070395548055
0.00721563851319435
0.00816391230531818
0.00865979761478397
0.008654963060724724
0.008148770498164402
0.007193120133655931
0.005887544107049943
0.0003637107709426226
0.0005701967704178797
0.007298462083964273
0.008887488586470278
0.010062216570736589
0.010678531070711633
0.010667598645502544
0.010026405102396916
0.008816185388164508
0.00716023838838061
0.00024442559200160273
0.0001589695836455197
0.008601446747139425
0.010552360723294085
0.011961394216279333
0.012697954050668498
0.01268394031883191
0.011915531777716468
0.010463708305130713
0.008465157075394046
9.609840789396307e-05
0.0009764594650133958
0.01012151524378719
0.01225113052756728
0.013860695391964807
0.01471232682137564
0.014699055325210333
0.013815729079940341
0.01214998278091041
0.009866108180295612
0.00011872771895424406
0.000317983179393976
0.01133457543872099
0.013873126184297962
0.01572789202352975
0.016703639095226687
0.016696263624158044
0.01570831343313745
0.013857566654236871
0.011408120035654678
0.0009292961975762141
0.0003185689524513237
0.012653460715297991
0.015489857048646208
0.017561817255079187
0.018652575964441094
0.01864855006953761
0.017551407684500888
0.01547480462588325
0.012607295255593225
4.695476192547066e-06
0.0006778165367962301
0.01404610012642931
0.017084552599336084
0.01933537755978964
0.020525260590185477
0.020522916717024962
0.019332397604724987
0.01709647907723423
0.014116820654859318
0.000952749011516985
0.00044712537861762736
0.015287464910033223
0.01857572309005428
0.020989190346079212
0.022262349849255382
0.022257635929387412
0.02097809646618279
0.018570739691407774
0.015329652755579596
0.0006925315900777659
0.0007252542798196405
0.01653917936268744
0.019937736692633427
0.022452405281802777
0.023779970737823293
0.0237698374734144
0.022420703446807775
0.019874778568375405
0.016396784749080618
0.00029007760721044406
0.0006180154289988415
0.01760167166454455
0.021062480727879074
0.023615316167288528
0.024961031695411293
0.02494677877159416
0.0235726881292388
0.02098972129149127
0.017488035734629405
0.00043141843543397396
0.000896546595851063
0.018524507310220394
0.021865720232269563
0.02435280153688916
0.025663351285336207
0.025644844876757462
0.02430099574948512
0.021793895678112466
0.01847170881640946
0.0009988470065678664
0.00014944830465799373
0.019033291779078695
0.022221520772279665
0.02453695787286548
0.02574521696496191
0.025718740122265122
0.024462684833623946
0.022111576163995415
0.01890525127820542
6.916699545513805e-05
0.0006974287731445636
0.019539928357772296
0.022153223422275298
0.024103166616356666
0.025116527018937747
0.025076918718757234
0.02399429274893307
0.021987572904781913
0.01927078412621687
0.00017162967726144053
0.0005210366062041293
0.01964553768030912
0.02157617203148582
0.023045687798187102
0.02378055778067499
0.023717863855187427
0.022889716248900505
0.021401523641440927
0.019388444981426216
3.1838929531307844e-05
0.00016469415649791275
0.019461031104969773
0.020559708447297362
0.021523448301902
0.021888532868805474
0.02177064074707113
0.021245772351937475
0.020439822906159047
0.01936564619769891
0.00031194499547960183
0.0003982210622160919
0.00020984374897512213
0.00018619300588033617
0.0009443723899839336
0.0007395507950492875
0.000490458808617567
0.00022741462797332325
0.00025435648177039296
5.802916032387562e-05
0.0004344166255581208