# vtk DataFile Version 2.0
Landlab output
ASCII
DATASET UNSTRUCTURED_GRID

POINTS 200 float
0.0 0.0 0.0
100.0 0.0 0.0
200.0 0.0 0.0
300.0 0.0 0.0
400.0 0.0 0.0
500.0 0.0 0.0
600.0 0.0 0.0
700.0 0.0 0.0
800.0 0.0 0.0
900.0 0.0 0.0
0.0 100.0 0.0
100.0 100.0 0.00019559296036343712
200.0 100.0 0.000366730657087338
300.0 100.0 0.0004950240327566214
400.0 100.0 0.0005692891354503289
500.0 100.0 0.0005823109924299031
600.0 100.0 0.0005282328190290588
700.0 100.0 0.00040490763152774755
800.0 100.0 0.00022074950868344634
900.0 100.0 0.0
0.0 200.0 0.0
100.0 200.0 0.0004045593872396814
200.0 200.0 0.0007572497180966399
300.0 200.0 0.0015196584766871521
400.0 200.0 0.0016694409334000071
500.0 200.0 0.001693162803110188
600.0 200.0 0.0015801602308717646
700.0 200.0 0.0013268122890147953
800.0 200.0 0.000950402765543736
900.0 200.0 0.0
0.0 300.0 0.0
100.0 300.0 0.0011352653546445224
200.0 300.0 0.0016865391521221722
300.0 300.0 0.002092721273328737
400.0 300.0 0.002320228403175164
500.0 300.0 0.0028509079812057223
600.0 300.0 0.0026709820352685725
700.0 300.0 0.0022765441037924704
800.0 300.0 0.0016945943490789175
900.0 300.0 0.0
0.0 400.0 0.0
100.0 400.0 0.0018888691659082492
200.0 400.0 0.0026569179486469184
300.0 400.0 0.0032175825431434617
400.0 400.0 0.0035257360301038806
500.0 400.0 0.00355978868796246
600.0 400.0 0.0033044678167343253
700.0 400.0 0.0032568766684366902
800.0 400.0 0.0024547794693529482
900.0 400.0 0.0
0.0 500.0 0.0
100.0 500.0 0.0026606843704819957
200.0 500.0 0.0036603414595808422
300.0 500.0 0.004384829730058921
400.0 500.0 0.004776985147979664
500.0 500.0 0.0048123630818912005
600.0 500.0 0.00447511251616965
700.0 500.0 0.003764236928809752
800.0 500.0 0.0027292065040770965
900.0 500.0 0.0
0.0 600.0 0.0
100.0 600.0 0.0034437336207619124
200.0 600.0 0.004684440789350477
300.0 600.0 0.00557921189688861
400.0 600.0 0.006058394723341608
500.0 600.0 0.006094696579681071
600.0 600.0 0.005671853478682521
700.0 600.0 0.004791052498780642
800.0 600.0 0.003514048254795115
900.0 600.0 0.0
0.0 700.0 0.0
100.0 700.0 0.003732100689709616
200.0 700.0 0.00521835791212483
300.0 700.0 0.0067865775094610465
400.0 700.0 0.007354438150122345
500.0 700.0 0.00739176169718268
600.0 700.0 0.006881815419844974
700.0 700.0 0.0058279383920595215
800.0 700.0 0.00430436248822161
900.0 700.0 0.0
0.0 800.0 0.0
100.0 800.0 0.004521954387032027
200.0 800.0 0.006254786815214926
300.0 800.0 0.00749681933730211
400.0 800.0 0.008153175331533317
500.0 800.0 0.008691056014383513
600.0 800.0 0.008093471547119167
700.0 800.0 0.006865981858157292
800.0 800.0 0.005095273645478075
900.0 800.0 0.0
0.0 900.0 0.0
100.0 900.0 0.005309801658092271
200.0 900.0 0.007287153231552555
300.0 900.0 0.00870099497254077
400.0 900.0 0.009444200411618985
500.0 900.0 0.009481782347594031
600.0 900.0 0.0087968900067287
700.0 900.0 0.007897485994795016
800.0 900.0 0.005882557388563877
900.0 900.0 0.0
0.0 1000.0 0.0
100.0 1000.0 0.006089626207764041
200.0 1000.0 0.008304443440446369
300.0 1000.0 0.009884805047818536
400.0 1000.0 0.010711887336308828
500.0 1000.0 0.010748853437337929
600.0 1000.0 0.009979138340867796
700.0 1000.0 0.008412996077800498
800.0 1000.0 0.006161217637666402
900.0 1000.0 0.0
0.0 1100.0 0.0
100.0 1100.0 0.006850824625246742
200.0 1100.0 0.009287081910886728
300.0 1100.0 0.011022548569320648
400.0 1100.0 0.011927856353432305
500.0 1100.0 0.011964686814202609
600.0 1100.0 0.01111653658177678
700.0 1100.0 0.009395238698036093
800.0 1100.0 0.006922155822555972
900.0 1100.0 0.0
0.0 1200.0 0.0
100.0 1200.0 0.007076609205043334
200.0 1200.0 0.009703714876454623
300.0 1200.0 0.012072262437953207
400.0 1200.0 0.013044557248893404
500.0 1200.0 0.013081654478241268
600.0 1200.0 0.01216692236199039
700.0 1200.0 0.010312629446236603
800.0 1200.0 0.007648431361385467
900.0 1200.0 0.0
0.0 1300.0 0.0
100.0 1300.0 0.007740381238595658
200.0 1300.0 0.010504733125889693
300.0 1300.0 0.012467502049758526
400.0 1300.0 0.013486277109048088
500.0 1300.0 0.014023046036071504
600.0 1300.0 0.013061317529073791
700.0 1300.0 0.011112664355490551
800.0 1300.0 0.008311548227053643
900.0 1300.0 0.0
0.0 1400.0 0.0
100.0 1400.0 0.008298894147956336
200.0 1400.0 0.011110158329198448
300.0 1400.0 0.013102325076402518
400.0 1400.0 0.014133491103390548
500.0 1400.0 0.014168470175682017
600.0 1400.0 0.013191575458196741
700.0 1400.0 0.011712840471981291
800.0 1400.0 0.008866601642640307
900.0 1400.0 0.0
0.0 1500.0 0.0
100.0 1500.0 0.008686802698730397
200.0 1500.0 0.011399759260601165
300.0 1500.0 0.013318640838548132
400.0 1500.0 0.014309256697347245
500.0 1500.0 0.014340899207881666
600.0 1500.0 0.013399380378106375
700.0 1500.0 0.011492654035993217
800.0 1500.0 0.008748058938337827
900.0 1500.0 0.0
0.0 1600.0 0.0
100.0 1600.0 0.008824348718646638
200.0 1600.0 0.011226837592407326
300.0 1600.0 0.012923684123430545
400.0 1600.0 0.013798017692239359
500.0 1600.0 0.013824888471465544
600.0 1600.0 0.012992241998048113
700.0 1600.0 0.011305706233715957
800.0 1600.0 0.00887634987680707
900.0 1600.0 0.0
0.0 1700.0 0.0
100.0 1700.0 0.00814987195425698
200.0 1700.0 0.009977740040435886
300.0 1700.0 0.011767647588100907
400.0 1700.0 0.012431667519649543
500.0 1700.0 0.012451871780876537
600.0 1700.0 0.011819185104619871
700.0 1700.0 0.010537008607869588
800.0 1700.0 0.008688938636758556
900.0 1700.0 0.0
0.0 1800.0 0.0
100.0 1800.0 0.007671128293759739
200.0 1800.0 0.00866662020805834
300.0 1800.0 0.00936886786352276
400.0 1800.0 0.009730268968732272
500.0 1800.0 0.010241332370487743
600.0 1800.0 0.009897082214441346
700.0 1800.0 0.009199055743083256
800.0 1800.0 0.008192501676076772
900.0 1800.0 0.0
0.0 1900.0 0.0
100.0 1900.0 0.0
200.0 1900.0 0.0
300.0 1900.0 0.0
400.0 1900.0 0.0
500.0 1900.0 0.0
600.0 1900.0 0.0
700.0 1900.0 0.0
800.0 1900.0 0.0
900.0 1900.0 0.0

CELLS 171 855
4 11 10 0 1
4 12 11 1 2
4 13 12 2 3
4 14 13 3 4
4 15 14 4 5
4 16 15 5 6
4 17 16 6 7
4 18 17 7 8
4 19 18 8 9
4 21 20 10 11
4 22 21 11 12
4 23 22 12 13
4 24 23 13 14
4 25 24 14 15
4 26 25 15 16
4 27 26 16 17
4 28 27 17 18
4 29 28 18 19
4 31 30 20 21
4 32 31 21 22
4 33 32 22 23
4 34 33 23 24
4 35 34 24 25
4 36 35 25 26
4 37 36 26 27
4 38 37 27 28
4 39 38 28 29
4 41 40 30 31
4 42 41 31 32
4 43 42 32 33
4 44 43 33 34
4 45 44 34 35
4 46 45 35 36
4 47 46 36 37
4 48 47 37 38
4 49 48 38 39
4 51 50 40 41
4 52 51 41 42
4 53 52 42 43
4 54 53 43 44
4 55 54 44 45
4 56 55 45 46
4 57 56 46 47
4 58 57 47 48
4 59 58 48 49
4 61 60 50 51
4 62 61 51 52
4 63 62 52 53
4 64 63 53 54
4 65 64 54 55
4 66 65 55 56
4 67 66 56 57
4 68 67 57 58
4 69 68 58 59
4 71 70 60 61
4 72 71 61 62
4 73 72 62 63
4 74 73 63 64
4 75 74 64 65
4 76 75 65 66
4 77 76 66 67
4 78 77 67 68
4 79 78 68 69
4 81 80 70 71
4 82 81 71 72
4 83 82 72 73
4 84 83 73 74
4 85 84 74 75
4 86 85 75 76
4 87 86 76 77
4 88 87 77 78
4 89 88 78 79
4 91 90 80 81
4 92 91 81 82
4 93 92 82 83
4 94 93 83 84
4 95 94 84 85
4 96 95 85 86
4 97 96 86 87
4 98 97 87 88
4 99 98 88 89
4 101 100 90 91
4 102 101 91 92
4 103 102 92 93
4 104 103 93 94
4 105 104 94 95
4 106 105 95 96
4 107 106 96 97
4 108 107 97 98
4 109 108 98 99
4 111 110 100 101
4 112 111 101 102
4 113 112 102 103
4 114 113 103 104
4 115 114 104 105
4 116 115 105 106
4 117 116 106 107
4 118 117 107 108
4 119 118 108 109
4 121 120 110 111
4 122 121 111 112
4 123 122 112 113
4 124 123 113 114
4 125 124 114 115
4 126 125 115 116
4 127 126 116 117
4 128 127 117 118
4 129 128 118 119
4 131 130 120 121
4 132 131 121 122
4 133 132 122 123
4 134 133 123 124
4 135 134 124 125
4 136 135 125 126
4 137 136 126 127
4 138 137 127 128
4 139 138 128 129
4 141 140 130 131
4 142 141 131 132
4 143 142 132 133
4 144 143 133 134
4 145 144 134 135
4 146 145 135 136
4 147 146 136 137
4 148 147 137 138
4 149 148 138 139
4 151 150 140 141
4 152 151 141 142
4 153 152 142 143
4 154 153 143 144
4 155 154 144 145
4 156 155 145 146
4 157 156 146 147
4 158 157 147 148
4 159 158 148 149
4 161 160 150 151
4 162 161 151 152
4 163 162 152 153
4 164 163 153 154
4 165 164 154 155
4 166 165 155 156
4 167 166 156 157
4 168 167 157 158
4 169 168 158 159
4 171 170 160 161
4 172 171 161 162
4 173 172 162 163
4 174 173 163 164
4 175 174 164 165
4 176 175 165 166
4 177 176 166 167
4 178 177 167 168
4 179 178 168 169
4 181 180 170 171
4 182 181 171 172
4 183 182 172 173
4 184 183 173 174
4 185 184 174 175
4 186 185 175 176
4 187 186 176 177
4 188 187 177 178
4 189 188 178 179
4 191 190 180 181
4 192 191 181 182
4 193 192 182 183
4 194 193 183 184
4 195 194 184 185
4 196 195 185 186
4 197 196 186 187
4 198 197 187 188
4 199 198 188 189

CELL_TYPES 171
9
9
9
9
9
9
9
9
9
9
9
9
9
9
9
9
9
9
9
9
9
9
9
9
9
9
9
9
9
9
9
9
9
9
9
9
9
9
9
9
9
9
9
9
9
9
9
9
9
9
9
9
9
9
9
9
9
9
9
9
9
9
9
9
9
9
9
9
9
9
9
9
9
9
9
9
9
9
9
9
9
9
9
9
9
9
9
9
9
9
9
9
9
9
9
9
9
9
9
9
9
9
9
9
9
9
9
9
9
9
9
9
9
9
9
9
9
9
9
9
9
9
9
9
9
9
9
9
9
9
9
9
9
9
9
9
9
9
9
9
9
9
9
9
9
9
9
9
9
9
9
9
9
9
9
9
9
9
9
9
9
9
9
9
9
9
9
9
9
9
9

POINT_DATA 200

SCALARS linear_diffusivity float 1
LOOKUP_TABLE default
50000.0
50000.0
50000.0
50000.0
50000.0
50000.0
50000.0
50000.0
50000.0
50000.0
50000.0
50000.0
50000.0
50000.0
50000.0
50000.0
50000.0
50000.0
50000.0
50000.0
50000.0
50000.0
50000.0
50000.0
50000.0
50000.0
50000.0
50000.0
50000.0
50000.0
50000.0
50000.0
50000.0
50000.0
50000.0
50000.0
50000.0
50000.0
50000.0
50000.0
50000.0
50000.0
50000.0
50000.0
50000.0
50000.0
50000.0
50000.0
50000.0
50000.0
50000.0
50000.0
50000.0
50000.0
50000.0
50000.0
50000.0
50000.0
50000.0
50000.0
50000.0
50000.0
50000.0
50000.0
50000.0
50000.0
50000.0
50000.0
50000.0
50000.0
50000.0
50000.0
50000.0
50000.0
50000.0
50000.0
50000.0
50000.0
50000.0
50000.0
50000.0
50000.0
50000.0
50000.0
50000.0
50000.0
50000.0
50000.0
50000.0
50000.0
50000.0
50000.0
50000.0
50000.0
50000.0
50000.0
50000.0
50000.0
50000.0
50000.0
50000.0
50000.0
50000.0
50000.0
50000.0
50000.0
50000.0
50000.0
50000.0
50000.0
50000.0
50000.0
50000.0
50000.0
50000.0
50000.0
50000.0
50000.0
50000.0
50000.0
50000.0
50000.0
50000.0
50000.0
50000.0
50000.0
50000.0
50000.0
50000.0
50000.0
50000.0
50000.0
50000.0
50000.0
50000.0
50000.0
50000.0
50000.0
50000.0
50000.0
50000.0
50000.0
50000.0
50000.0
50000.0
50000.0
50000.0
50000.0
50000.0
50000.0
50000.0
50000.0
50000.0
50000.0
50000.0
50000.0
50000.0
50000.0
50000.0
50000.0
50000.0
50000.0
50000.0
50000.0
50000.0
50000.0
50000.0
50000.0
50000.0
50000.0
50000.0
50000.0
50000.0
50000.0
50000.0
50000.0
50000.0
50000.0
50000.0
50000.0
50000.0
50000.0
50000.0
50000.0
50000.0
50000.0
50000.0
50000.0
50000.0
50000.0
50000.0
50000.0
50000.0
50000.0
50000.0
50000.0
50000.0
50000.0
50000.0
50000.0

SCALARS topographic__elevation float 1
LOOKUP_TABLE default
0.0
0.0
0.0
0.0
0.0
0.0
0.0
0.0
0.0
0.0
0.0
0.00019559296036343712
0.000366730657087338
0.0004950240327566214
0.0005692891354503289
0.0005823109924299031
0.0005282328190290588
0.00040490763152774755
0.00022074950868344634
0.0
0.0
0.0004045593872396814
0.0007572497180966399
0.0015196584766871521
0.0016694409334000071
0.001693162803110188
0.0015801602308717646
0.0013268122890147953
0.000950402765543736
0.0
0.0
0.0011352653546445224
0.0016865391521221722
0.002092721273328737
0.002320228403175164
0.0028509079812057223
0.0026709820352685725
0.0022765441037924704
0.0016945943490789175
0.0
0.0
0.0018888691659082492
0.0026569179486469184
0.0032175825431434617
0.0035257360301038806
0.00355978868796246
0.0033044678167343253
0.0032568766684366902
0.0024547794693529482
0.0
0.0
0.0026606843704819957
0.0036603414595808422
0.004384829730058921
0.004776985147979664
0.0048123630818912005
0.00447511251616965
0.003764236928809752
0.0027292065040770965
0.0
0.0
0.0034437336207619124
0.004684440789350477
0.00557921189688861
0.006058394723341608
0.006094696579681071
0.005671853478682521
0.004791052498780642
0.003514048254795115
0.0
0.0
0.003732100689709616
0.00521835791212483
0.0067865775094610465
0.007354438150122345
0.00739176169718268
0.006881815419844974
0.0058279383920595215
0.00430436248822161
0.0
0.0
0.004521954387032027
0.006254786815214926
0.00749681933730211
0.008153175331533317
0.008691056014383513
0.008093471547119167
0.006865981858157292
0.005095273645478075
0.0
0.0
0.005309801658092271
0.007287153231552555
0.00870099497254077
0.009444200411618985
0.009481782347594031
0.0087968900067287
0.007897485994795016
0.005882557388563877
0.0
0.0
0.006089626207764041
0.008304443440446369
0.009884805047818536
0.010711887336308828
0.010748853437337929
0.009979138340867796
0.008412996077800498
0.006161217637666402
0.0
0.0
0.006850824625246742
0.009287081910886728
0.011022548569320648
0.011927856353432305
0.011964686814202609
0.01111653658177678
0.009395238698036093
0.006922155822555972
0.0
0.0
0.007076609205043334
0.009703714876454623
0.012072262437953207
0.013044557248893404
0.013081654478241268
0.01216692236199039
0.010312629446236603
0.007648431361385467
0.0
0.0
0.007740381238595658
0.010504733125889693
0.012467502049758526
0.013486277109048088
0.014023046036071504
0.013061317529073791
0.011112664355490551
0.008311548227053643
0.0
0.0
0.008298894147956336
0.011110158329198448
0.013102325076402518
0.014133491103390548
0.014168470175682017
0.013191575458196741
0.011712840471981291
0.008866601642640307
0.0
0.0
0.008686802698730397
0.011399759260601165
0.013318640838548132
0.014309256697347245
0.014340899207881666
0.013399380378106375
0.011492654035993217
0.008748058938337827
0.0
0.0
0.008824348718646638
0.011226837592407326
0.012923684123430545
0.013798017692239359
0.013824888471465544
0.012992241998048113
0.011305706233715957
0.00887634987680707
0.0
0.0
0.00814987195425698
0.009977740040435886
0.011767647588100907
0.012431667519649543
0.012451871780876537
0.011819185104619871
0.010537008607869588
0.008688938636758556
0.0
0.0
0.007671128293759739
0.00866662020805834
0.00936886786352276
0.009730268968732272
0.010241332370487743
0.009897082214441346
0.009199055743083256
0.008192501676076772
0.0
0.0
0.0
0.0
0.0
0.0
0.0
0.0
0.0
0.0
0.0