# vtk DataFile Version 2.0
Landlab output
ASCII
DATASET UNSTRUCTURED_GRID

POINTS 200 float
0.0 0.0 0.0005488135039273248
100.0 0.0 0.0007151892332638454
200.0 0.0 0.000602763374007987
300.0 0.0 0.0005448831876122692
400.0 0.0 0.0004236548037617887
500.0 0.0 0.0006458941174879378
600.0 0.0 0.00043758721611178333
700.0 0.0 0.0008917730007866301
800.0 0.0 0.0009636626480265454
900.0 0.0 0.0003834415188257777
0.0 100.0 0.0037917250380826648
100.0 100.0 0.003702979527494054
200.0 100.0 0.0036150464123624
300.0 100.0 0.00355904168632503
400.0 100.0 0.0035226154953357488
500.0 100.0 0.0035717232431820376
600.0 100.0 0.0035705898343371886
700.0 100.0 0.003711679271695625
800.0 100.0 0.003783855987685627
900.0 100.0 0.0038700121482468193
0.0 200.0 0.006978618342232764
100.0 200.0 0.0066900469629177645
200.0 200.0 0.006595569635097912
300.0 200.0 0.006553849219744256
400.0 200.0 0.006536301673046292
500.0 200.0 0.006548053629378218
600.0 200.0 0.006561598895959897
700.0 200.0 0.006600668791787545
800.0 200.0 0.0065901607040827976
900.0 200.0 0.006414661939990523
0.0 300.0 0.009264555612104628
100.0 300.0 0.009483190819728211
200.0 300.0 0.009523656738545529
300.0 300.0 0.009524916977307125
400.0 300.0 0.009521182070579844
500.0 300.0 0.009523085735123126
600.0 300.0 0.009527519729913163
700.0 300.0 0.009539560852758804
800.0 300.0 0.009561629024980532
900.0 300.0 0.009681820299103482
0.0 400.0 0.012359507900573786
100.0 400.0 0.01245473882281612
200.0 400.0 0.012491391499117068
300.0 400.0 0.01250157659354834
400.0 400.0 0.01250110417606829
500.0 400.0 0.01249626962208335
600.0 400.0 0.012486434786604193
700.0 400.0 0.012468873119871866
800.0 400.0 0.012435212534546193
900.0 400.0 0.012363710770942622
0.0 500.0 0.01557019677041788
100.0 500.0 0.015485141626252271
200.0 500.0 0.015486114335201433
300.0 500.0 0.015489596461968052
400.0 500.0 0.015486189617562304
500.0 500.0 0.015475257192393593
600.0 500.0 0.015453784993739283
700.0 500.0 0.015414811137037555
800.0 500.0 0.015346917930789029
900.0 500.0 0.015244425592001603
0.0 600.0 0.018158969583645518
100.0 600.0 0.018429808239956907
200.0 600.0 0.01847887665848289
300.0 600.0 0.018485246443429523
400.0 600.0 0.01847964566468509
500.0 600.0 0.01846563193286936
600.0 600.0 0.018439384004920657
700.0 600.0 0.018390224240389202
800.0 600.0 0.0182935185682393
900.0 600.0 0.018096098407893963
0.0 700.0 0.021976459465013396
100.0 700.0 0.021596523868134307
200.0 700.0 0.021514862307483444
300.0 700.0 0.02149357545296094
400.0 700.0 0.021482322464512496
500.0 700.0 0.021469050968357183
600.0 700.0 0.021448609140963776
700.0 700.0 0.021413714560856535
800.0 700.0 0.021341116804682016
900.0 700.0 0.021118727718954244
0.0 800.0 0.024317983179393977
100.0 800.0 0.024465204776891375
200.0 800.0 0.024490923671279807
300.0 800.0 0.024492478771518
400.0 800.0 0.024487711212733416
500.0 800.0 0.024480335741669607
600.0 800.0 0.0244729001811382
700.0 800.0 0.02447536414123101
800.0 800.0 0.024538749373836488
900.0 800.0 0.024929296197576216
0.0 900.0 0.02731856895245132
100.0 900.0 0.02745556566452036
200.0 900.0 0.02749148242347955
300.0 900.0 0.02749815513402796
400.0 900.0 0.027496221323468663
500.0 900.0 0.02749219542856776
600.0 900.0 0.027487745563454416
700.0 900.0 0.02747643000072543
800.0 900.0 0.027409400204797672
900.0 900.0 0.027004695476192546
0.0 1000.0 0.03067781653679623
100.0 1000.0 0.030547105391364494
200.0 1000.0 0.03052147127382727
300.0 1000.0 0.030512689056669356
400.0 1000.0 0.030507109518855602
500.0 1000.0 0.03050476564569593
600.0 1000.0 0.030509709101609203
700.0 1000.0 0.030533397751725255
800.0 1000.0 0.030617825919829096
900.0 1000.0 0.030952749011516983
0.0 1100.0 0.03344712537861763
100.0 1100.0 0.03353358035946598
200.0 1100.0 0.033534631145545245
300.0 1100.0 0.03352405091311327
400.0 1100.0 0.033514796482858815
500.0 1100.0 0.03351008256299193
600.0 1100.0 0.033512957033217765
700.0 1100.0 0.033529647746904576
800.0 1100.0 0.0335757682049881
900.0 1100.0 0.03369253159007776
0.0 1200.0 0.03672525427981964
100.0 1200.0 0.03660538601434614
200.0 1200.0 0.03655928342484923
300.0 1200.0 0.036533899264324855
400.0 1200.0 0.036517728157772336
500.0 1200.0 0.0365075948933647
600.0 1200.0 0.036502197429332264
700.0 1200.0 0.03649632530059644
800.0 1200.0 0.03646299140073374
900.0 1200.0 0.036290077607210446
0.0 1300.0 0.039618015428998836
100.0 1300.0 0.03960327687093294
200.0 1300.0 0.03956293624825327
300.0 1300.0 0.03953415434903096
400.0 1300.0 0.0395141874157901
500.0 1300.0 0.03949993449197465
600.0 1300.0 0.03949152631098738
700.0 1300.0 0.03949017681186752
800.0 1300.0 0.03948964094104272
900.0 1300.0 0.03943141843543397
0.0 1400.0 0.042896546595851064
100.0 1400.0 0.04262656371041781
200.0 1400.0 0.04255464204231718
300.0 1400.0 0.04252506922078485
400.0 1400.0 0.042504332471404595
500.0 1400.0 0.042485826062830086
600.0 1400.0 0.04247326343339206
700.0 1400.0 0.04248281748817117
800.0 1400.0 0.04257376521661795
900.0 1400.0 0.042998847006567864
0.0 1500.0 0.04514944830465799
100.0 1500.0 0.04545155163992275
200.0 1500.0 0.04550355111847729
300.0 1500.0 0.04550654224405828
400.0 1500.0 0.04549155502375213
500.0 1500.0 0.04546507818106471
600.0 1500.0 0.04543226920483921
700.0 1500.0 0.04539360651022212
800.0 1500.0 0.04532351113905021
900.0 1500.0 0.045069166995455136
0.0 1600.0 0.04869742877314456
100.0 1600.0 0.048526403371306384
200.0 1600.0 0.04850101623439157
300.0 1600.0 0.048505381834380065
400.0 1600.0 0.048489568188560025
500.0 1600.0 0.048449959888398356
600.0 1600.0 0.0483965079670036
700.0 1600.0 0.04833536571695393
800.0 1600.0 0.048257259139760186
900.0 1600.0 0.04817162967726144
0.0 1700.0 0.051521036606204135
100.0 1700.0 0.05145540417737336
200.0 1700.0 0.05146832793665901
300.0 1700.0 0.051523858724643934
400.0 1700.0 0.051510756785612705
500.0 1700.0 0.05144806286016093
600.0 1700.0 0.05136788717545707
700.0 1700.0 0.051293679546722606
800.0 1700.0 0.05119831147855261
900.0 1700.0 0.05103183892953131
0.0 1800.0 0.05416469415649791
100.0 1800.0 0.05430569013984303
200.0 1800.0 0.05439273366080673
300.0 1800.0 0.05461056398913179
400.0 1800.0 0.05458107535325926
500.0 1800.0 0.05446318323158993
600.0 1800.0 0.05433288803936395
700.0 1800.0 0.05427284811993975
800.0 1800.0 0.05421030523259347
900.0 1800.0 0.0543119449954796
0.0 1900.0 0.05739822106221609
100.0 1900.0 0.057209843912880975
200.0 1900.0 0.057186193006848615
300.0 1900.0 0.05794437238471545
400.0 1900.0 0.057739550790044294
500.0 1900.0 0.0574904588037555
600.0 1900.0 0.057227414623240394
700.0 1900.0 0.05725435648401283
800.0 1900.0 0.057058029324177965
900.0 1900.0 0.05743441662555812

CELLS 171 855
4 11 10 0 1
4 12 11 1 2
4 13 12 2 3
4 14 13 3 4
4 15 14 4 5
4 16 15 5 6
4 17 16 6 7
4 18 17 7 8
4 19 18 8 9
4 21 20 10 11
4 22 21 11 12
4 23 22 12 13
4 24 23 13 14
4 25 24 14 15
4 26 25 15 16
4 27 26 16 17
4 28 27 17 18
4 29 28 18 19
4 31 30 20 21
4 32 31 21 22
4 33 32 22 23
4 34 33 23 24
4 35 34 24 25
4 36 35 25 26
4 37 36 26 27
4 38 37 27 28
4 39 38 28 29
4 41 40 30 31
4 42 41 31 32
4 43 42 32 33
4 44 43 33 34
4 45 44 34 35
4 46 45 35 36
4 47 46 36 37
4 48 47 37 38
4 49 48 38 39
4 51 50 40 41
4 52 51 41 42
4 53 52 42 43
4 54 53 43 44
4 55 54 44 45
4 56 55 45 46
4 57 56 46 47
4 58 57 47 48
4 59 58 48 49
4 61 60 50 51
4 62 61 51 52
4 63 62 52 53
4 64 63 53 54
4 65 64 54 55
4 66 65 55 56
4 67 66 56 57
4 68 67 57 58
4 69 68 58 59
4 71 70 60 61
4 72 71 61 62
4 73 72 62 63
4 74 73 63 64
4 75 74 64 65
4 76 75 65 66
4 77 76 66 67
4 78 77 67 68
4 79 78 68 69
4 81 80 70 71
4 82 81 71 72
4 83 82 72 73
4 84 83 73 74
4 85 84 74 75
4 86 85 75 76
4 87 86 76 77
4 88 87 77 78
4 89 88 78 79
4 91 90 80 81
4 92 91 81 82
4 93 92 82 83
4 94 93 83 84
4 95 94 84 85
4 96 95 85 86
4 97 96 86 87
4 98 97 87 88
4 99 98 88 89
4 101 100 90 91
4 102 101 91 92
4 103 102 92 93
4 104 103 93 94
4 105 104 94 95
4 106 105 95 96
4 107 106 96 97
4 108 107 97 98
4 109 108 98 99
4 111 110 100 101
4 112 111 101 102
4 113 112 102 103
4 114 113 103 104
4 115 114 104 105
4 116 115 105 106
4 117 116 106 107
4 118 117 107 108
4 119 118 108 109
4 121 120 110 111
4 122 121 111 112
4 123 122 112 113
4 124 123 113 114
4 125 124 114 115
4 126 125 115 116
4 127 126 116 117
4 128 127 117 118
4 129 128 118 119
4 131 130 120 121
4 132 131 121 122
4 133 132 122 123
4 134 133 123 124
4 135 134 124 125
4 136 135 125 126
4 137 136 126 127
4 138 137 127 128
4 139 138 128 129
4 141 140 130 131
4 142 141 131 132
4 143 142 132 133
4 144 143 133 134
4 145 144 134 135
4 146 145 135 136
4 147 146 136 137
4 148 147 137 138
4 149 148 138 139
4 151 150 140 141
4 152 151 141 142
4 153 152 142 143
4 154 153 143 144
4 155 154 144 145
4 156 155 145 146
4 157 156 146 147
4 158 157 147 148
4 159 158 148 149
4 161 160 150 151
4 162 161 151 152
4 163 162 152 153
4 164 163 153 154
4 165 164 154 155
4 166 165 155 156
4 167 166 156 157
4 168 167 157 158
4 169 168 158 159
4 171 170 160 161
4 172 171 161 162
4 173 172 162 163
4 174 173 163 164
4 175 174 164 165
4 176 175 165 166
4 177 176 166 167
4 178 177 167 168
4 179 178 168 169
4 181 180 170 171
4 182 181 171 172
4 183 182 172 173
4 184 183 173 174
4 185 184 174 175
4 186 185 175 176
4 187 186 176 177
4 188 187 177 178
4 189 188 178 179
4 191 190 180 181
4 192 191 181 182
4 193 192 182 183
4 194 193 183 184
4 195 194 184 185
4 196 195 185 186
4 197 196 186 187
4 198 197 187 188
4 199 198 188 189

CELL_TYPES 171
9
9
9
9
9
9
9
9
9
9
9
9
9
9
9
9
9
9
9
9
9
9
9
9
9
9
9
9
9
9
9
9
9
9
9
9
9
9
9
9
9
9
9
9
9
9
9
9
9
9
9
9
9
9
9
9
9
9
9
9
9
9
9
9
9
9
9
9
9
9
9
9
9
9
9
9
9
9
9
9
9
9
9
9
9
9
9
9
9
9
9
9
9
9
9
9
9
9
9
9
9
9
9
9
9
9
9
9
9
9
9
9
9
9
9
9
9
9
9
9
9
9
9
9
9
9
9
9
9
9
9
9
9
9
9
9
9
9
9
9
9
9
9
9
9
9
9
9
9
9
9
9
9
9
9
9
9
9
9
9
9
9
9
9
9
9
9
9
9
9
9

POINT_DATA 200

SCALARS linear_diffusivity float 1
LOOKUP_TABLE default
50000.0
50000.0
50000.0
50000.0
50000.0
50000.0
50000.0
50000.0
50000.0
50000.0
50000.0
50000.0
50000.0
50000.0
50000.0
50000.0
50000.0
50000.0
50000.0
50000.0
50000.0
50000.0
50000.0
50000.0
50000.0
50000.0
50000.0
50000.0
50000.0
50000.0
50000.0
50000.0
50000.0
50000.0
50000.0
50000.0
50000.0
50000.0
50000.0
50000.0
50000.0
50000.0
50000.0
50000.0
50000.0
50000.0
50000.0
50000.0
50000.0
50000.0
50000.0
50000.0
50000.0
50000.0
50000.0
50000.0
50000.0
50000.0
50000.0
50000.0
50000.0
50000.0
50000.0
50000.0
50000.0
50000.0
50000.0
50000.0
50000.0
50000.0
50000.0
50000.0
50000.0
50000.0
50000.0
50000.0
50000.0
50000.0
50000.0
50000.0
50000.0
50000.0
50000.0
50000.0
50000.0
50000.0
50000.0
50000.0
50000.0
50000.0
50000.0
50000.0
50000.0
50000.0
50000.0
50000.0
50000.0
50000.0
50000.0
50000.0
50000.0
50000.0
50000.0
50000.0
50000.0
50000.0
50000.0
50000.0
50000.0
50000.0
50000.0
50000.0
50000.0
50000.0
50000.0
50000.0
50000.0
50000.0
50000.0
50000.0
50000.0
50000.0
50000.0
50000.0
50000.0
50000.0
50000.0
50000.0
50000.0
50000.0
50000.0
50000.0
50000.0
50000.0
50000.0
50000.0
50000.0
50000.0
50000.0
50000.0
50000.0
50000.0
50000.0
50000.0
50000.0
50000.0
50000.0
50000.0
50000.0
50000.0
50000.0
50000.0
50000.0
50000.0
50000.0
50000.0
50000.0
50000.0
50000.0
50000.0
50000.0
50000.0
50000.0
50000.0
50000.0
50000.0
50000.0
50000.0
50000.0
50000.0
50000.0
50000.0
50000.0
50000.0
50000.0
50000.0
50000.0
50000.0
50000.0
50000.0
50000.0
50000.0
50000.0
50000.0
50000.0
50000.0
50000.0
50000.0
50000.0
50000.0
50000.0
50000.0
50000.0
50000.0
50000.0
50000.0
50000.0
50000.0
50000.0
50000.0

SCALARS topographic__elevation float 1
LOOKUP_TABLE default
0.0005488135039273248
0.0007151892332638454
0.000602763374007987
0.0005448831876122692
0.0004236548037617887
0.0006458941174879378
0.00043758721611178333
0.0008917730007866301
0.0009636626480265454
0.0003834415188257777
0.0037917250380826648
0.003702979527494054
0.0036150464123624
0.00355904168632503
0.0035226154953357488
0.0035717232431820376
0.0035705898343371886
0.003711679271695625
0.003783855987685627
0.0038700121482468193
0.006978618342232764
0.0066900469629177645
0.006595569635097912
0.006553849219744256
0.006536301673046292
0.006548053629378218
0.006561598895959897
0.006600668791787545
0.0065901607040827976
0.006414661939990523
0.009264555612104628
0.009483190819728211
0.009523656738545529
0.009524916977307125
0.009521182070579844
0.009523085735123126
0.009527519729913163
0.009539560852758804
0.009561629024980532
0.009681820299103482
0.012359507900573786
0.01245473882281612
0.012491391499117068
0.01250157659354834
0.01250110417606829
0.01249626962208335
0.012486434786604193
0.012468873119871866
0.012435212534546193
0.012363710770942622
0.01557019677041788
0.015485141626252271
0.015486114335201433
0.015489596461968052
0.015486189617562304
0.015475257192393593
0.015453784993739283
0.015414811137037555
0.015346917930789029
0.015244425592001603
0.018158969583645518
0.018429808239956907
0.01847887665848289
0.018485246443429523
0.01847964566468509
0.01846563193286936
0.018439384004920657
0.018390224240389202
0.0182935185682393
0.018096098407893963
0.021976459465013396
0.021596523868134307
0.021514862307483444
0.02149357545296094
0.021482322464512496
0.021469050968357183
0.021448609140963776
0.021413714560856535
0.021341116804682016
0.021118727718954244
0.024317983179393977
0.024465204776891375
0.024490923671279807
0.024492478771518
0.024487711212733416
0.024480335741669607
0.0244729001811382
0.02447536414123101
0.024538749373836488
0.024929296197576216
0.02731856895245132
0.02745556566452036
0.02749148242347955
0.02749815513402796
0.027496221323468663
0.02749219542856776
0.027487745563454416
0.02747643000072543
0.027409400204797672
0.027004695476192546
0.03067781653679623
0.030547105391364494
0.03052147127382727
0.030512689056669356
0.030507109518855602
0.03050476564569593
0.030509709101609203
0.030533397751725255
0.030617825919829096
0.030952749011516983
0.03344712537861763
0.03353358035946598
0.033534631145545245
0.03352405091311327
0.033514796482858815
0.03351008256299193
0.033512957033217765
0.033529647746904576
0.0335757682049881
0.03369253159007776
0.03672525427981964
0.03660538601434614
0.03655928342484923
0.036533899264324855
0.036517728157772336
0.0365075948933647
0.036502197429332264
0.03649632530059644
0.03646299140073374
0.036290077607210446
0.039618015428998836
0.03960327687093294
0.03956293624825327
0.03953415434903096
0.0395141874157901
0.03949993449197465
0.03949152631098738
0.03949017681186752
0.03948964094104272
0.03943141843543397
0.042896546595851064
0.04262656371041781
0.04255464204231718
0.04252506922078485
0.042504332471404595
0.042485826062830086
0.04247326343339206
0.04248281748817117
0.04257376521661795
0.042998847006567864
0.04514944830465799
0.04545155163992275
0.04550355111847729
0.04550654224405828
0.04549155502375213
0.04546507818106471
0.04543226920483921
0.04539360651022212
0.04532351113905021
0.045069166995455136
0.04869742877314456
0.048526403371306384
0.04850101623439157
0.048505381834380065
0.048489568188560025
0.048449959888398356
0.0483965079670036
0.04833536571695393
0.048257259139760186
0.04817162967726144
0.051521036606204135
0.05145540417737336
0.05146832793665901
0.051523858724643934
0.051510756785612705
0.05144806286016093
0.05136788717545707
0.051293679546722606
0.05119831147855261
0.05103183892953131
0.05416469415649791
0.05430569013984303
0.05439273366080673
0.05461056398913179
0.05458107535325926
0.05446318323158993
0.05433288803936395
0.05427284811993975
0.05421030523259347
0.0543119449954796
0.05739822106221609
0.057209843912880975
0.057186193006848615
0.05794437238471545
0.057739550790044294
0.0574904588037555
0.057227414623240394
0.05725435648401283
0.057058029324177965
0.05743441662555812