# vtk DataFile Version 2.0
Landlab output
ASCII
DATASET UNSTRUCTURED_GRID

POINTS 200 float
0.0 0.0 0.0005488135039273248
100.0 0.0 0.0007151892780098829
200.0 0.0 0.0006027633746546525
300.0 0.0 0.0005448831861044457
400.0 0.0 0.00042365480227829445
500.0 0.0 0.0006458941160130538
600.0 0.0 0.0004375872144672977
700.0 0.0 0.0008917730008042286
800.0 0.0 0.0009636626854117568
900.0 0.0 0.0003834415188257777
0.0 100.0 0.0027917250380826647
100.0 100.0 0.002702155846125748
200.0 100.0 0.0026134922021151096
300.0 100.0 0.0025569350272027598
400.0 100.0 0.0025202023514917134
500.0 100.0 0.002569291603333462
600.0 100.0 0.002568436341557704
700.0 100.0 0.0027100718036608385
800.0 100.0 0.0027829975431357826
900.0 100.0 0.0028700121482468192
0.0 200.0 0.004978618342232764
100.0 200.0 0.004688482572905905
200.0 200.0 0.0045926174237422845
300.0 200.0 0.004549846848262566
400.0 200.0 0.0045317159227354215
500.0 200.0 0.0045434315701442934
600.0 200.0 0.004557504587010447
700.0 200.0 0.004597612032815121
800.0 200.0 0.0045885280750799905
900.0 200.0 0.004414661939990523
0.0 300.0 0.006264555612104627
100.0 300.0 0.006481041952749879
200.0 300.0 0.0065196006745283815
300.0 300.0 0.00651941630053362
400.0 300.0 0.00651487714389109
500.0 300.0 0.0065167282711470695
600.0 300.0 0.006521886024075596
700.0 300.0 0.006535353513673101
800.0 300.0 0.006559381420157788
900.0 300.0 0.006681820299103483
0.0 400.0 0.008359507900573786
100.0 400.0 0.008452217237463543
200.0 400.0 0.008486630515920943
300.0 400.0 0.00849511705860964
400.0 400.0 0.008493696222341553
500.0 400.0 0.008488795753321378
600.0 400.0 0.008479808349002384
700.0 400.0 0.00846392234207079
800.0 400.0 0.008432567069623743
900.0 400.0 0.008363710770942622
0.0 500.0 0.01057019677041788
100.0 500.0 0.010482491993678547
200.0 500.0 0.010481109761901256
300.0 500.0 0.010482802691369704
400.0 500.0 0.010478393189291703
500.0 500.0 0.010467385963343024
600.0 500.0 0.010446801821020927
700.0 500.0 0.01040959118377367
800.0 500.0 0.010344127719019571
900.0 500.0 0.010244425592001602
0.0 600.0 0.01215896958364552
100.0 600.0 0.012427283838357788
200.0 600.0 0.01247410660341807
300.0 600.0 0.0124787669114576
400.0 600.0 0.01247220417600388
500.0 600.0 0.012458113101678166
600.0 600.0 0.012432708634986096
700.0 600.0 0.012385231486859629
800.0 600.0 0.012290848810703806
900.0 600.0 0.012096098407893963
0.0 700.0 0.014976459465013397
100.0 700.0 0.01459436317117707
200.0 700.0 0.014510777612014907
300.0 700.0 0.014488023048542787
400.0 700.0 0.014475940474422817
500.0 700.0 0.014462597158647898
600.0 700.0 0.014442874883073588
700.0 700.0 0.014409423069584235
800.0 700.0 0.014338821131522125
900.0 700.0 0.014118727718954244
0.0 800.0 0.016317983179393977
100.0 800.0 0.01646361047496895
200.0 800.0 0.016487908284153086
300.0 800.0 0.016488377001932782
400.0 800.0 0.016482992682029168
500.0 800.0 0.016475560097211427
600.0 800.0 0.016468653794687427
700.0 800.0 0.0164721843022867
800.0 800.0 0.016537047733846122
900.0 800.0 0.016929296197576216
0.0 900.0 0.018318568952451323
100.0 900.0 0.01845468676988165
200.0 900.0 0.018489819409492656
300.0 900.0 0.018495891585530236
400.0 900.0 0.01849361565622148
500.0 900.0 0.01848955655296679
600.0 900.0 0.01848539792873656
700.0 900.0 0.018474671367905947
800.0 900.0 0.018408458899695262
900.0 900.0 0.018004695476192545
0.0 1000.0 0.02067781653679623
100.0 1000.0 0.020547022741919923
200.0 1000.0 0.020521315082866483
300.0 1000.0 0.02051247702760208
400.0 1000.0 0.02050686653030009
500.0 1000.0 0.02050452107634151
600.0 1000.0 0.020509493070138586
700.0 1000.0 0.020533237009968952
800.0 1000.0 0.020617740300356638
900.0 1000.0 0.020952749011516985
0.0 1100.0 0.02244712537861763
100.0 1100.0 0.022534296144026935
200.0 1100.0 0.022535987393940533
300.0 1100.0 0.022525901072482486
400.0 1100.0 0.022516932633355406
500.0 1100.0 0.022512253366890646
600.0 1100.0 0.02251489493843803
700.0 1100.0 0.02253110377681554
800.0 1100.0 0.022576549117683538
900.0 1100.0 0.022692531590077766
0.0 1200.0 0.024725254279819642
100.0 1200.0 0.024606818670625183
200.0 1200.0 0.02456199884197899
300.0 1200.0 0.024537605146867682
400.0 1200.0 0.02452200871709493
500.0 1200.0 0.02451194640150669
600.0 1200.0 0.02450608296096663
700.0 1200.0 0.02449924500778787
800.0 1200.0 0.02446455739825836
900.0 1200.0 0.024290077607210445
0.0 1300.0 0.02661801542899884
100.0 1300.0 0.026605263389394635
200.0 1300.0 0.026566702734589144
300.0 1300.0 0.026539297260317958
400.0 1300.0 0.026520131254667345
500.0 1300.0 0.026505980251655105
600.0 1300.0 0.026496927295181223
700.0 1300.0 0.026494236768548597
800.0 1300.0 0.026491819009020676
900.0 1300.0 0.026431418435433972
0.0 1400.0 0.028896546595851065
100.0 1400.0 0.028628871466133715
200.0 1400.0 0.028559018929002214
300.0 1400.0 0.028531048274326957
400.0 1400.0 0.028511246282250394
500.0 1400.0 0.028492862124421103
600.0 1400.0 0.02847955203704519
700.0 1400.0 0.028487546382883193
800.0 1400.0 0.02857630272960887
900.0 1400.0 0.028998847006567866
0.0 1500.0 0.030149448304657992
100.0 1500.0 0.030453900939519225
200.0 1500.0 0.030508007908550253
300.0 1500.0 0.030512632702324537
400.0 1500.0 0.030498600717215593
500.0 1500.0 0.03047225161471358
600.0 1500.0 0.030438683112931166
700.0 1500.0 0.03039843111441962
800.0 1500.0 0.030326100512601817
900.0 1500.0 0.030069166995455136
0.0 1600.0 0.03269742877314456
100.0 1600.0 0.032528499866195354
200.0 1600.0 0.032504994201744214
300.0 1600.0 0.032510819508334884
400.0 1600.0 0.032495860832065
500.0 1600.0 0.03245636881126717
600.0 1600.0 0.03240224007090442
700.0 1600.0 0.03233967849813564
800.0 1600.0 0.03225957416913355
900.0 1600.0 0.03217162967726144
0.0 1700.0 0.034521036606204134
100.0 1700.0 0.03445697757496212
200.0 1700.0 0.034471313769816665
300.0 1700.0 0.03452794102807301
400.0 1700.0 0.03451548207692558
500.0 1700.0 0.03445287663358044
600.0 1700.0 0.034372193523620184
700.0 1700.0 0.03429692015446348
800.0 1700.0 0.03420005116860289
900.0 1700.0 0.03403183892953131
0.0 1800.0 0.03616469415649791
100.0 1800.0 0.03630653312006627
200.0 1800.0 0.036394333533184886
300.0 1800.0 0.03661275163954808
400.0 1800.0 0.036583607930343626
500.0 1800.0 0.036465763602808135
600.0 1800.0 0.03633519670884361
700.0 1800.0 0.03627458561022619
800.0 1800.0 0.0362112380366032
900.0 1800.0 0.0363119449954796
0.0 1900.0 0.03839822106221609
100.0 1900.0 0.03820984385534925
200.0 1900.0 0.0381861930063775
300.0 1900.0 0.03894437238666362
400.0 1900.0 0.03873955079182348
500.0 1900.0 0.038490458805487085
600.0 1900.0 0.038227414624994994
700.0 1900.0 0.038254356483059096
800.0 1900.0 0.03805802926638344
900.0 1900.0 0.03843441662555812

CELLS 171 855
4 11 10 0 1
4 12 11 1 2
4 13 12 2 3
4 14 13 3 4
4 15 14 4 5
4 16 15 5 6
4 17 16 6 7
4 18 17 7 8
4 19 18 8 9
4 21 20 10 11
4 22 21 11 12
4 23 22 12 13
4 24 23 13 14
4 25 24 14 15
4 26 25 15 16
4 27 26 16 17
4 28 27 17 18
4 29 28 18 19
4 31 30 20 21
4 32 31 21 22
4 33 32 22 23
4 34 33 23 24
4 35 34 24 25
4 36 35 25 26
4 37 36 26 27
4 38 37 27 28
4 39 38 28 29
4 41 40 30 31
4 42 41 31 32
4 43 42 32 33
4 44 43 33 34
4 45 44 34 35
4 46 45 35 36
4 47 46 36 37
4 48 47 37 38
4 49 48 38 39
4 51 50 40 41
4 52 51 41 42
4 53 52 42 43
4 54 53 43 44
4 55 54 44 45
4 56 55 45 46
4 57 56 46 47
4 58 57 47 48
4 59 58 48 49
4 61 60 50 51
4 62 61 51 52
4 63 62 52 53
4 64 63 53 54
4 65 64 54 55
4 66 65 55 56
4 67 66 56 57
4 68 67 57 58
4 69 68 58 59
4 71 70 60 61
4 72 71 61 62
4 73 72 62 63
4 74 73 63 64
4 75 74 64 65
4 76 75 65 66
4 77 76 66 67
4 78 77 67 68
4 79 78 68 69
4 81 80 70 71
4 82 81 71 72
4 83 82 72 73
4 84 83 73 74
4 85 84 74 75
4 86 85 75 76
4 87 86 76 77
4 88 87 77 78
4 89 88 78 79
4 91 90 80 81
4 92 91 81 82
4 93 92 82 83
4 94 93 83 84
4 95 94 84 85
4 96 95 85 86
4 97 96 86 87
4 98 97 87 88
4 99 98 88 89
4 101 100 90 91
4 102 101 91 92
4 103 102 92 93
4 104 103 93 94
4 105 104 94 95
4 106 105 95 96
4 107 106 96 97
4 108 107 97 98
4 109 108 98 99
4 111 110 100 101
4 112 111 101 102
4 113 112 102 103
4 114 113 103 104
4 115 114 104 105
4 116 115 105 106
4 117 116 106 107
4 118 117 107 108
4 119 118 108 109
4 121 120 110 111
4 122 121 111 112
4 123 122 112 113
4 124 123 113 114
4 125 124 114 115
4 126 125 115 116
4 127 126 116 117
4 128 127 117 118
4 129 128 118 119
4 131 130 120 121
4 132 131 121 122
4 133 132 122 123
4 134 133 123 124
4 135 134 124 125
4 136 135 125 126
4 137 136 126 127
4 138 137 127 128
4 139 138 128 129
4 141 140 130 131
4 142 141 131 132
4 143 142 132 133
4 144 143 133 134
4 145 144 134 135
4 146 145 135 136
4 147 146 136 137
4 148 147 137 138
4 149 148 138 139
4 151 150 140 141
4 152 151 141 142
4 153 152 142 143
4 154 153 143 144
4 155 154 144 145
4 156 155 145 146
4 157 156 146 147
4 158 157 147 148
4 159 158 148 149
4 161 160 150 151
4 162 161 151 152
4 163 162 152 153
4 164 163 153 154
4 165 164 154 155
4 166 165 155 156
4 167 166 156 157
4 168 167 157 158
4 169 168 158 159
4 171 170 160 161
4 172 171 161 162
4 173 172 162 163
4 174 173 163 164
4 175 174 164 165
4 176 175 165 166
4 177 176 166 167
4 178 177 167 168
4 179 178 168 169
4 181 180 170 171
4 182 181 171 172
4 183 182 172 173
4 184 183 173 174
4 185 184 174 175
4 186 185 175 176
4 187 186 176 177
4 188 187 177 178
4 189 188 178 179
4 191 190 180 181
4 192 191 181 182
4 193 192 182 183
4 194 193 183 184
4 195 194 184 185
4 196 195 185 186
4 197 196 186 187
4 198 197 187 188
4 199 198 188 189

CELL_TYPES 171
9
9
9
9
9
9
9
9
9
9
9
9
9
9
9
9
9
9
9
9
9
9
9
9
9
9
9
9
9
9
9
9
9
9
9
9
9
9
9
9
9
9
9
9
9
9
9
9
9
9
9
9
9
9
9
9
9
9
9
9
9
9
9
9
9
9
9
9
9
9
9
9
9
9
9
9
9
9
9
9
9
9
9
9
9
9
9
9
9
9
9
9
9
9
9
9
9
9
9
9
9
9
9
9
9
9
9
9
9
9
9
9
9
9
9
9
9
9
9
9
9
9
9
9
9
9
9
9
9
9
9
9
9
9
9
9
9
9
9
9
9
9
9
9
9
9
9
9
9
9
9
9
9
9
9
9
9
9
9
9
9
9
9
9
9
9
9
9
9
9
9

POINT_DATA 200

SCALARS linear_diffusivity float 1
LOOKUP_TABLE default
50000.0
50000.0
50000.0
50000.0
50000.0
50000.0
50000.0
50000.0
50000.0
50000.0
50000.0
50000.0
50000.0
50000.0
50000.0
50000.0
50000.0
50000.0
50000.0
50000.0
50000.0
50000.0
50000.0
50000.0
50000.0
50000.0
50000.0
50000.0
50000.0
50000.0
50000.0
50000.0
50000.0
50000.0
50000.0
50000.0
50000.0
50000.0
50000.0
50000.0
50000.0
50000.0
50000.0
50000.0
50000.0
50000.0
50000.0
50000.0
50000.0
50000.0
50000.0
50000.0
50000.0
50000.0
50000.0
50000.0
50000.0
50000.0
50000.0
50000.0
50000.0
50000.0
50000.0
50000.0
50000.0
50000.0
50000.0
50000.0
50000.0
50000.0
50000.0
50000.0
50000.0
50000.0
50000.0
50000.0
50000.0
50000.0
50000.0
50000.0
50000.0
50000.0
50000.0
50000.0
50000.0
50000.0
50000.0
50000.0
50000.0
50000.0
50000.0
50000.0
50000.0
50000.0
50000.0
50000.0
50000.0
50000.0
50000.0
50000.0
50000.0
50000.0
50000.0
50000.0
50000.0
50000.0
50000.0
50000.0
50000.0
50000.0
50000.0
50000.0
50000.0
50000.0
50000.0
50000.0
50000.0
50000.0
50000.0
50000.0
50000.0
50000.0
50000.0
50000.0
50000.0
50000.0
50000.0
50000.0
50000.0
50000.0
50000.0
50000.0
50000.0
50000.0
50000.0
50000.0
50000.0
50000.0
50000.0
50000.0
50000.0
50000.0
50000.0
50000.0
50000.0
50000.0
50000.0
50000.0
50000.0
50000.0
50000.0
50000.0
50000.0
50000.0
50000.0
50000.0
50000.0
50000.0
50000.0
50000.0
50000.0
50000.0
50000.0
50000.0
50000.0
50000.0
50000.0
50000.0
50000.0
50000.0
50000.0
50000.0
50000.0
50000.0
50000.0
50000.0
50000.0
50000.0
50000.0
50000.0
50000.0
50000.0
50000.0
50000.0
50000.0
50000.0
50000.0
50000.0
50000.0
50000.0
50000.0
50000.0
50000.0
50000.0
50000.0
50000.0
50000.0
50000.0
50000.0
50000.0

SCALARS topographic__elevation float 1
LOOKUP_TABLE default
0.0005488135039273248
0.0007151892780098829
0.0006027633746546525
0.0005448831861044457
0.00042365480227829445
0.0006458941160130538
0.0004375872144672977
0.0008917730008042286
0.0009636626854117568
0.0003834415188257777
0.0027917250380826647
0.002702155846125748
0.0026134922021151096
0.0025569350272027598
0.0025202023514917134
0.002569291603333462
0.002568436341557704
0.0027100718036608385
0.0027829975431357826
0.0028700121482468192
0.004978618342232764
0.004688482572905905
0.0045926174237422845
0.004549846848262566
0.0045317159227354215
0.0045434315701442934
0.004557504587010447
0.004597612032815121
0.0045885280750799905
0.004414661939990523
0.006264555612104627
0.006481041952749879
0.0065196006745283815
0.00651941630053362
0.00651487714389109
0.0065167282711470695
0.006521886024075596
0.006535353513673101
0.006559381420157788
0.006681820299103483
0.008359507900573786
0.008452217237463543
0.008486630515920943
0.00849511705860964
0.008493696222341553
0.008488795753321378
0.008479808349002384
0.00846392234207079
0.008432567069623743
0.008363710770942622
0.01057019677041788
0.010482491993678547
0.010481109761901256
0.010482802691369704
0.010478393189291703
0.010467385963343024
0.010446801821020927
0.01040959118377367
0.010344127719019571
0.010244425592001602
0.01215896958364552
0.012427283838357788
0.01247410660341807
0.0124787669114576
0.01247220417600388
0.012458113101678166
0.012432708634986096
0.012385231486859629
0.012290848810703806
0.012096098407893963
0.014976459465013397
0.01459436317117707
0.014510777612014907
0.014488023048542787
0.014475940474422817
0.014462597158647898
0.014442874883073588
0.014409423069584235
0.014338821131522125
0.014118727718954244
0.016317983179393977
0.01646361047496895
0.016487908284153086
0.016488377001932782
0.016482992682029168
0.016475560097211427
0.016468653794687427
0.0164721843022867
0.016537047733846122
0.016929296197576216
0.018318568952451323
0.01845468676988165
0.018489819409492656
0.018495891585530236
0.01849361565622148
0.01848955655296679
0.01848539792873656
0.018474671367905947
0.018408458899695262
0.018004695476192545
0.02067781653679623
0.020547022741919923
0.020521315082866483
0.02051247702760208
0.02050686653030009
0.02050452107634151
0.020509493070138586
0.020533237009968952
0.020617740300356638
0.020952749011516985
0.02244712537861763
0.022534296144026935
0.022535987393940533
0.022525901072482486
0.022516932633355406
0.022512253366890646
0.02251489493843803
0.02253110377681554
0.022576549117683538
0.022692531590077766
0.024725254279819642
0.024606818670625183
0.02456199884197899
0.024537605146867682
0.02452200871709493
0.02451194640150669
0.02450608296096663
0.02449924500778787
0.02446455739825836
0.024290077607210445
0.02661801542899884
0.026605263389394635
0.026566702734589144
0.026539297260317958
0.026520131254667345
0.026505980251655105
0.026496927295181223
0.026494236768548597
0.026491819009020676
0.026431418435433972
0.028896546595851065
0.028628871466133715
0.028559018929002214
0.028531048274326957
0.028511246282250394
0.028492862124421103
0.02847955203704519
0.028487546382883193
0.02857630272960887
0.028998847006567866
0.030149448304657992
0.030453900939519225
0.030508007908550253
0.030512632702324537
0.030498600717215593
0.03047225161471358
0.030438683112931166
0.03039843111441962
0.030326100512601817
0.030069166995455136
0.03269742877314456
0.032528499866195354
0.032504994201744214
0.032510819508334884
0.032495860832065
0.03245636881126717
0.03240224007090442
0.03233967849813564
0.03225957416913355
0.03217162967726144
0.034521036606204134
0.03445697757496212
0.034471313769816665
0.03452794102807301
0.03451548207692558
0.03445287663358044
0.034372193523620184
0.03429692015446348
0.03420005116860289
0.03403183892953131
0.03616469415649791
0.03630653312006627
0.036394333533184886
0.03661275163954808
0.036583607930343626
0.036465763602808135
0.03633519670884361
0.03627458561022619
0.0362112380366032
0.0363119449954796
0.03839822106221609
0.03820984385534925
0.0381861930063775
0.03894437238666362
0.03873955079182348
0.038490458805487085
0.038227414624994994
0.038254356483059096
0.03805802926638344
0.03843441662555812