# vtk DataFile Version 2.0
Landlab output
ASCII
DATASET UNSTRUCTURED_GRID

POINTS 200 float
0.0 0.0 0.0005488135039273248
100.0 0.0 0.0007151893663724195
200.0 0.0 0.0006027633760716439
300.0 0.0 0.0005448831829968968
400.0 0.0 0.0004236547993389047
500.0 0.0 0.0006458941130666561
600.0 0.0 0.00043758721126269253
700.0 0.0 0.0008917730007820798
800.0 0.0 0.0009636627605010292
900.0 0.0 0.0003834415188257777
0.0 100.0 0.0007917250380826646
100.0 100.0 0.0035288949120179615
200.0 100.0 0.0035680445567739115
300.0 100.0 0.003925596639769131
400.0 100.0 0.0030710360586866416
500.0 100.0 0.0030871293002115944
600.0 100.0 0.0030202183989123735
700.0 100.0 0.003832619841959324
800.0 100.0 0.0037781567460296586
900.0 100.0 0.0008700121482468192
0.0 200.0 0.000978618342232764
100.0 200.0 0.0067991585522506
200.0 200.0 0.0064614793636308945
300.0 200.0 0.006780529175865347
400.0 200.0 0.0061182744261009045
500.0 200.0 0.006639921021522113
600.0 200.0 0.006143353287258863
700.0 200.0 0.006944668917929682
800.0 200.0 0.006521848311715926
900.0 200.0 0.0004146619399905236
0.0 300.0 0.00026455561210462694
100.0 300.0 0.009774233687905675
200.0 300.0 0.009456150332868209
300.0 300.0 0.009568433948747262
400.0 300.0 0.009018789800511793
500.0 300.0 0.009617635497055136
600.0 300.0 0.009612095722986035
700.0 300.0 0.009616933995986472
800.0 300.0 0.009943748080775057
900.0 300.0 0.0006818202991034834
0.0 400.0 0.000359507900573786
100.0 400.0 0.01243703196044065
200.0 400.0 0.012697631195386645
300.0 400.0 0.012060225472023473
400.0 400.0 0.012666766715379632
500.0 400.0 0.012670637869634991
600.0 400.0 0.012210382561243807
700.0 400.0 0.012128926297564652
800.0 400.0 0.012315428352863124
900.0 400.0 0.0003637107709426226
0.0 500.0 0.0005701967704178797
100.0 500.0 0.015438601510795302
200.0 500.0 0.015988373838373218
300.0 500.0 0.015102044810670545
400.0 500.0 0.015208876756077287
500.0 500.0 0.015161309517963194
600.0 500.0 0.015653108325044338
700.0 500.0 0.015253291603558719
800.0 500.0 0.0154663107660805
900.0 500.0 0.00024442559200160273
0.0 600.0 0.0001589695836455197
100.0 600.0 0.018110375144462114
200.0 600.0 0.01865632958875639
300.0 600.0 0.018138182951647607
400.0 600.0 0.018196582361633264
500.0 600.0 0.01836872517068747
600.0 600.0 0.018820993229745307
700.0 600.0 0.018097101275821204
800.0 600.0 0.01883794490591719
900.0 600.0 9.609840789396307e-05
0.0 700.0 0.0009764594650133958
100.0 700.0 0.021468651202099023
200.0 700.0 0.021976761087660383
300.0 700.0 0.02160484551981837
400.0 700.0 0.021739263579452037
500.0 700.0 0.021039187792083556
600.0 700.0 0.021282806963349492
700.0 700.0 0.02112019655912787
800.0 700.0 0.02129614021009502
900.0 700.0 0.00011872771895424406
0.0 800.0 0.000317983179393976
100.0 800.0 0.02441426298464172
200.0 800.0 0.024064147497338147
300.0 800.0 0.024692472118791685
400.0 800.0 0.02456660145428112
500.0 800.0 0.024265389491021395
600.0 800.0 0.02452324805280507
700.0 800.0 0.02409394051190408
800.0 800.0 0.024575946484126365
900.0 800.0 0.0009292961975762141
0.0 900.0 0.0003185689524513237
100.0 900.0 0.027667410388344048
200.0 900.0 0.027131797861773978
300.0 900.0 0.02771632720460852
400.0 900.0 0.027289406092864586
500.0 900.0 0.0271831913619979
600.0 900.0 0.027586512935078605
700.0 900.0 0.02702010754605607
800.0 900.0 0.02782894003315449
900.0 900.0 4.695476192547066e-06
0.0 1000.0 0.0006778165367962301
100.0 1000.0 0.0302700079713503
200.0 1000.0 0.030735194022570203
300.0 1000.0 0.030962188544928035
400.0 1000.0 0.03024875314358135
500.0 1000.0 0.03057615733431012
600.0 1000.0 0.030592041931784997
700.0 1000.0 0.030572251904870253
800.0 1000.0 0.030223081641077034
900.0 1000.0 0.000952749011516985
0.0 1100.0 0.00044712537861762736
100.0 1100.0 0.033846408669556044
200.0 1100.0 0.03369947927562332
300.0 1100.0 0.03329743695063819
400.0 1100.0 0.03381379781968407
500.0 1100.0 0.0333965057409978
600.0 1100.0 0.033881103196256326
700.0 1100.0 0.033581272874276175
800.0 1100.0 0.03388173534962903
900.0 1100.0 0.0006925315900777659
0.0 1200.0 0.0007252542798196405
100.0 1200.0 0.0365013243861419
200.0 1200.0 0.03695608363363445
300.0 1200.0 0.036643990199571576
400.0 1200.0 0.03642385504849598
500.0 1200.0 0.03660639321414465
600.0 1200.0 0.036019193198382454
700.0 1200.0 0.03630157481675242
800.0 1200.0 0.0366601735396131
900.0 1200.0 0.00029007760721044406
0.0 1300.0 0.0006180154289988415
100.0 1300.0 0.0394287687043344
200.0 1300.0 0.03913547406337685
300.0 1300.0 0.039298282326233
400.0 1300.0 0.03956996491068501
500.0 1300.0 0.039590872761186904
600.0 1300.0 0.039574325249198114
700.0 1300.0 0.039653200819181236
800.0 1300.0 0.03965210327564174
900.0 1300.0 0.00043141843543397396
0.0 1400.0 0.000896546595851063
100.0 1400.0 0.042367561862642455
200.0 1400.0 0.04243586492653288
300.0 1400.0 0.04289192335451887
400.0 1400.0 0.04280619398914527
500.0 1400.0 0.04270388858352936
600.0 1400.0 0.042100226887338874
700.0 1400.0 0.04291948261412228
800.0 1400.0 0.04271424129926355
900.0 1400.0 0.0009988470065678664
0.0 1500.0 0.00014944830465799373
100.0 1500.0 0.04586812605347131
200.0 1500.0 0.04516249293545655
300.0 1500.0 0.04561555956402238
400.0 1500.0 0.04512381998287499
500.0 1500.0 0.045848008229405095
600.0 1500.0 0.04580731895831709
700.0 1500.0 0.0455691007396791
800.0 1500.0 0.04540718329141482
900.0 1500.0 6.916699545513805e-05
0.0 1600.0 0.0006974287731445636
100.0 1600.0 0.04845354269738254
200.0 1600.0 0.048722055597859665
300.0 1600.0 0.048866382326783905
400.0 1600.0 0.04897552150482537
500.0 1600.0 0.04885580334244813
600.0 1600.0 0.04801171408399531
700.0 1600.0 0.04835997806500557
800.0 1600.0 0.04872999056262704
900.0 1600.0 0.00017162967726144053
0.0 1700.0 0.0005210366062041293
100.0 1700.0 0.05105433798409827
200.0 1700.0 0.05119999652589477
300.0 1700.0 0.0510185217937097
400.0 1700.0 0.0517936977033205
500.0 1700.0 0.05122392468786584
600.0 1700.0 0.05134535168060798
700.0 1700.0 0.05192808129332835
800.0 1700.0 0.05170441440604589
900.0 1700.0 3.1838929531307844e-05
0.0 1800.0 0.00016469415649791275
100.0 1800.0 0.054621478411811204
200.0 1800.0 0.054577228592689736
300.0 1800.0 0.05423789281988821
400.0 1800.0 0.054934213997437475
500.0 1800.0 0.05461396595529923
600.0 1800.0 0.054535632802334394
700.0 1800.0 0.05458990997837766
800.0 1800.0 0.054730122049694595
900.0 1800.0 0.00031194499547960183
0.0 1900.0 0.0003982210622160919
100.0 1900.0 0.00020984374897512213
200.0 1900.0 0.00018619300588033617
300.0 1900.0 0.0009443723899839336
400.0 1900.0 0.0007395507950492875
500.0 1900.0 0.000490458808617567
600.0 1900.0 0.00022741462797332325
700.0 1900.0 0.00025435648177039296
800.0 1900.0 5.802916032387562e-05
900.0 1900.0 0.0004344166255581208

CELLS 171 855
4 11 10 0 1
4 12 11 1 2
4 13 12 2 3
4 14 13 3 4
4 15 14 4 5
4 16 15 5 6
4 17 16 6 7
4 18 17 7 8
4 19 18 8 9
4 21 20 10 11
4 22 21 11 12
4 23 22 12 13
4 24 23 13 14
4 25 24 14 15
4 26 25 15 16
4 27 26 16 17
4 28 27 17 18
4 29 28 18 19
4 31 30 20 21
4 32 31 21 22
4 33 32 22 23
4 34 33 23 24
4 35 34 24 25
4 36 35 25 26
4 37 36 26 27
4 38 37 27 28
4 39 38 28 29
4 41 40 30 31
4 42 41 31 32
4 43 42 32 33
4 44 43 33 34
4 45 44 34 35
4 46 45 35 36
4 47 46 36 37
4 48 47 37 38
4 49 48 38 39
4 51 50 40 41
4 52 51 41 42
4 53 52 42 43
4 54 53 43 44
4 55 54 44 45
4 56 55 45 46
4 57 56 46 47
4 58 57 47 48
4 59 58 48 49
4 61 60 50 51
4 62 61 51 52
4 63 62 52 53
4 64 63 53 54
4 65 64 54 55
4 66 65 55 56
4 67 66 56 57
4 68 67 57 58
4 69 68 58 59
4 71 70 60 61
4 72 71 61 62
4 73 72 62 63
4 74 73 63 64
4 75 74 64 65
4 76 75 65 66
4 77 76 66 67
4 78 77 67 68
4 79 78 68 69
4 81 80 70 71
4 82 81 71 72
4 83 82 72 73
4 84 83 73 74
4 85 84 74 75
4 86 85 75 76
4 87 86 76 77
4 88 87 77 78
4 89 88 78 79
4 91 90 80 81
4 92 91 81 82
4 93 92 82 83
4 94 93 83 84
4 95 94 84 85
4 96 95 85 86
4 97 96 86 87
4 98 97 87 88
4 99 98 88 89
4 101 100 90 91
4 102 101 91 92
4 103 102 92 93
4 104 103 93 94
4 105 104 94 95
4 106 105 95 96
4 107 106 96 97
4 108 107 97 98
4 109 108 98 99
4 111 110 100 101
4 112 111 101 102
4 113 112 102 103
4 114 113 103 104
4 115 114 104 105
4 116 115 105 106
4 117 116 106 107
4 118 117 107 108
4 119 118 108 109
4 121 120 110 111
4 122 121 111 112
4 123 122 112 113
4 124 123 113 114
4 125 124 114 115
4 126 125 115 116
4 127 126 116 117
4 128 127 117 118
4 129 128 118 119
4 131 130 120 121
4 132 131 121 122
4 133 132 122 123
4 134 133 123 124
4 135 134 124 125
4 136 135 125 126
4 137 136 126 127
4 138 137 127 128
4 139 138 128 129
4 141 140 130 131
4 142 141 131 132
4 143 142 132 133
4 144 143 133 134
4 145 144 134 135
4 146 145 135 136
4 147 146 136 137
4 148 147 137 138
4 149 148 138 139
4 151 150 140 141
4 152 151 141 142
4 153 152 142 143
4 154 153 143 144
4 155 154 144 145
4 156 155 145 146
4 157 156 146 147
4 158 157 147 148
4 159 158 148 149
4 161 160 150 151
4 162 161 151 152
4 163 162 152 153
4 164 163 153 154
4 165 164 154 155
4 166 165 155 156
4 167 166 156 157
4 168 167 157 158
4 169 168 158 159
4 171 170 160 161
4 172 171 161 162
4 173 172 162 163
4 174 173 163 164
4 175 174 164 165
4 176 175 165 166
4 177 176 166 167
4 178 177 167 168
4 179 178 168 169
4 181 180 170 171
4 182 181 171 172
4 183 182 172 173
4 184 183 173 174
4 185 184 174 175
4 186 185 175 176
4 187 186 176 177
4 188 187 177 178
4 189 188 178 179
4 191 190 180 181
4 192 191 181 182
4 193 192 182 183
4 194 193 183 184
4 195 194 184 185
4 196 195 185 186
4 197 196 186 187
4 198 197 187 188
4 199 198 188 189

CELL_TYPES 171
9
9
9
9
9
9
9
9
9
9
9
9
9
9
9
9
9
9
9
9
9
9
9
9
9
9
9
9
9
9
9
9
9
9
9
9
9
9
9
9
9
9
9
9
9
9
9
9
9
9
9
9
9
9
9
9
9
9
9
9
9
9
9
9
9
9
9
9
9
9
9
9
9
9
9
9
9
9
9
9
9
9
9
9
9
9
9
9
9
9
9
9
9
9
9
9
9
9
9
9
9
9
9
9
9
9
9
9
9
9
9
9
9
9
9
9
9
9
9
9
9
9
9
9
9
9
9
9
9
9
9
9
9
9
9
9
9
9
9
9
9
9
9
9
9
9
9
9
9
9
9
9
9
9
9
9
9
9
9
9
9
9
9
9
9
9
9
9
9
9
9

POINT_DATA 200

SCALARS topographic__elevation float 1
LOOKUP_TABLE default
0.0005488135039273248
0.0007151893663724195
0.0006027633760716439
0.0005448831829968968
0.0004236547993389047
0.0006458941130666561
0.00043758721126269253
0.0008917730007820798
0.0009636627605010292
0.0003834415188257777
0.0007917250380826646
0.0035288949120179615
0.0035680445567739115
0.003925596639769131
0.0030710360586866416
0.0030871293002115944
0.0030202183989123735
0.003832619841959324
0.0037781567460296586
0.0008700121482468192
0.000978618342232764
0.0067991585522506
0.0064614793636308945
0.006780529175865347
0.0061182744261009045
0.006639921021522113
0.006143353287258863
0.006944668917929682
0.006521848311715926
0.0004146619399905236
0.00026455561210462694
0.009774233687905675
0.009456150332868209
0.009568433948747262
0.009018789800511793
0.009617635497055136
0.009612095722986035
0.009616933995986472
0.009943748080775057
0.0006818202991034834
0.000359507900573786
0.01243703196044065
0.012697631195386645
0.012060225472023473
0.012666766715379632
0.012670637869634991
0.012210382561243807
0.012128926297564652
0.012315428352863124
0.0003637107709426226
0.0005701967704178797
0.015438601510795302
0.015988373838373218
0.015102044810670545
0.015208876756077287
0.015161309517963194
0.015653108325044338
0.015253291603558719
0.0154663107660805
0.00024442559200160273
0.0001589695836455197
0.018110375144462114
0.01865632958875639
0.018138182951647607
0.018196582361633264
0.01836872517068747
0.018820993229745307
0.018097101275821204
0.01883794490591719
9.609840789396307e-05
0.0009764594650133958
0.021468651202099023
0.021976761087660383
0.02160484551981837
0.021739263579452037
0.021039187792083556
0.021282806963349492
0.02112019655912787
0.02129614021009502
0.00011872771895424406
0.000317983179393976
0.02441426298464172
0.024064147497338147
0.024692472118791685
0.02456660145428112
0.024265389491021395
0.02452324805280507
0.02409394051190408
0.024575946484126365
0.0009292961975762141
0.0003185689524513237
0.027667410388344048
0.027131797861773978
0.02771632720460852
0.027289406092864586
0.0271831913619979
0.027586512935078605
0.02702010754605607
0.02782894003315449
4.695476192547066e-06
0.0006778165367962301
0.0302700079713503
0.030735194022570203
0.030962188544928035
0.03024875314358135
0.03057615733431012
0.030592041931784997
0.030572251904870253
0.030223081641077034
0.000952749011516985
0.00044712537861762736
0.033846408669556044
0.03369947927562332
0.03329743695063819
0.03381379781968407
0.0333965057409978
0.033881103196256326
0.033581272874276175
0.03388173534962903
0.0006925315900777659
0.0007252542798196405
0.0365013243861419
0.03695608363363445
0.036643990199571576
0.03642385504849598
0.03660639321414465
0.036019193198382454
0.03630157481675242
0.0366601735396131
0.00029007760721044406
0.0006180154289988415
0.0394287687043344
0.03913547406337685
0.039298282326233
0.03956996491068501
0.039590872761186904
0.039574325249198114
0.039653200819181236
0.03965210327564174
0.00043141843543397396
0.000896546595851063
0.042367561862642455
0.04243586492653288
0.04289192335451887
0.04280619398914527
0.04270388858352936
0.042100226887338874
0.04291948261412228
0.04271424129926355
0.0009988470065678664
0.00014944830465799373
0.04586812605347131
0.04516249293545655
0.04561555956402238
0.04512381998287499
0.045848008229405095
0.04580731895831709
0.0455691007396791
0.04540718329141482
6.916699545513805e-05
0.0006974287731445636
0.04845354269738254
0.048722055597859665
0.048866382326783905
0.04897552150482537
0.04885580334244813
0.04801171408399531
0.04835997806500557
0.04872999056262704
0.00017162967726144053
0.0005210366062041293
0.05105433798409827
0.05119999652589477
0.0510185217937097
0.0517936977033205
0.05122392468786584
0.05134535168060798
0.05192808129332835
0.05170441440604589
3.1838929531307844e-05
0.00016469415649791275
0.054621478411811204
0.054577228592689736
0.05423789281988821
0.054934213997437475
0.05461396595529923
0.054535632802334394
0.05458990997837766
0.054730122049694595
0.00031194499547960183
0.0003982210622160919
0.00020984374897512213
0.00018619300588033617
0.0009443723899839336
0.0007395507950492875
0.000490458808617567
0.00022741462797332325
0.00025435648177039296
5.802916032387562e-05
0.0004344166255581208