# vtk DataFile Version 2.0
Landlab output
ASCII
DATASET UNSTRUCTURED_GRID

POINTS 200 float
0.0 0.0 0.0005488135039273248
100.0 0.0 0.0007151893663724195
200.0 0.0 0.0006027633760716439
300.0 0.0 0.0005448831829968968
400.0 0.0 0.0004236547993389047
500.0 0.0 0.0006458941130666561
600.0 0.0 0.00043758721126269253
700.0 0.0 0.0008917730007820798
800.0 0.0 0.0009636627605010292
900.0 0.0 0.0003834415188257777
0.0 100.0 0.0007917250380826646
100.0 100.0 0.0015288949171745902
200.0 100.0 0.0015680445596539254
300.0 100.0 0.0019255966387848177
400.0 100.0 0.001071036058360805
500.0 100.0 0.0010871292998715586
600.0 100.0 0.0010202183979310083
700.0 100.0 0.0018326198443517332
800.0 100.0 0.0017781567493097864
900.0 100.0 0.0008700121482468192
0.0 200.0 0.000978618342232764
100.0 200.0 0.002799158560228016
200.0 200.0 0.002461479362712253
300.0 200.0 0.002780529176146086
400.0 200.0 0.002118274425946257
500.0 200.0 0.002639921021392387
600.0 200.0 0.0021433532873589853
700.0 200.0 0.00294466891734295
800.0 200.0 0.002521848318405356
900.0 200.0 0.0004146619399905236
0.0 300.0 0.00026455561210462694
100.0 300.0 0.003774233688924703
200.0 300.0 0.0034561503324337687
300.0 300.0 0.0035684339488281864
400.0 300.0 0.0030187898004615014
500.0 300.0 0.0036176354970689634
600.0 300.0 0.0036120957228102926
700.0 300.0 0.0036169339965786617
800.0 300.0 0.003943748079268102
900.0 300.0 0.0006818202991034834
0.0 400.0 0.000359507900573786
100.0 400.0 0.004437031956013111
200.0 400.0 0.004697631195747058
300.0 400.0 0.004060225471760671
400.0 400.0 0.004666766715423656
500.0 400.0 0.00467063786962377
600.0 400.0 0.004210382561130497
700.0 400.0 0.004128926297624787
800.0 400.0 0.004315428351570498
900.0 400.0 0.0003637107709426226
0.0 500.0 0.0005701967704178797
100.0 500.0 0.005438601512573314
200.0 500.0 0.00598837383816389
300.0 500.0 0.0051020448107222
400.0 500.0 0.005208876756088985
500.0 500.0 0.005161309517911062
600.0 500.0 0.005653108325325045
700.0 500.0 0.005253291602879428
800.0 500.0 0.005466310770597704
900.0 500.0 0.00024442559200160273
0.0 600.0 0.0001589695836455197
100.0 600.0 0.0061103751422635745
200.0 600.0 0.006656329589228979
300.0 600.0 0.0061381829514482785
400.0 600.0 0.006196582361664458
500.0 600.0 0.006368725170669799
600.0 600.0 0.006820993229813725
700.0 600.0 0.006097101275802442
800.0 600.0 0.0068379449069716
900.0 600.0 9.609840789396307e-05
0.0 700.0 0.0009764594650133958
100.0 700.0 0.007468651201798141
200.0 700.0 0.007976761088013685
300.0 700.0 0.007604845519769488
400.0 700.0 0.0077392635794162135
500.0 700.0 0.007039187792197399
600.0 700.0 0.007282806962834103
700.0 700.0 0.007120196560518069
800.0 700.0 0.007296140201713103
900.0 700.0 0.00011872771895424406
0.0 800.0 0.000317983179393976
100.0 800.0 0.008414262991223687
200.0 800.0 0.008064147496678572
300.0 800.0 0.008692472119177242
400.0 800.0 0.008566601454231423
500.0 800.0 0.008265389490966762
600.0 800.0 0.008523248053246156
700.0 800.0 0.00809394051114032
800.0 800.0 0.008575946491746242
900.0 800.0 0.0009292961975762141
0.0 900.0 0.0003185689524513237
100.0 900.0 0.009667410382757138
200.0 900.0 0.009131797862194254
300.0 900.0 0.009716327204281883
400.0 900.0 0.009289406092919663
500.0 900.0 0.009183191362004045
600.0 900.0 0.00958651293489959
700.0 900.0 0.009020107546143685
800.0 900.0 0.00982894003052974
900.0 900.0 4.695476192547066e-06
0.0 1000.0 0.0006778165367962301
100.0 1000.0 0.01027000797257821
200.0 1000.0 0.010735194022271799
300.0 1000.0 0.010962188545054303
400.0 1000.0 0.010248753143540422
500.0 1000.0 0.010576157334381931
600.0 1000.0 0.010592041931442892
700.0 1000.0 0.010572251905484
800.0 1000.0 0.010223081635452757
900.0 1000.0 0.000952749011516985
0.0 1100.0 0.00044712537861762736
100.0 1100.0 0.011846408671499433
200.0 1100.0 0.011699479275419443
300.0 1100.0 0.01129743695078282
400.0 1100.0 0.011813797819696341
500.0 1100.0 0.011396505740897256
600.0 1100.0 0.011881103196826216
700.0 1100.0 0.011581272873182629
800.0 1100.0 0.01188173535777958
900.0 1100.0 0.0006925315900777659
0.0 1200.0 0.0007252542798196405
100.0 1200.0 0.012501324383331769
200.0 1200.0 0.012956083634360299
300.0 1200.0 0.012643990199343617
400.0 1200.0 0.012423855048537448
500.0 1200.0 0.012606393214133498
600.0 1200.0 0.012019193198333708
700.0 1200.0 0.012301574816700507
800.0 1200.0 0.01266017353819949
900.0 1200.0 0.00029007760721044406
0.0 1300.0 0.0006180154289988415
100.0 1300.0 0.013428768702075312
200.0 1300.0 0.013135474063940583
300.0 1300.0 0.013298282326048355
400.0 1300.0 0.013569964910695847
500.0 1300.0 0.01359087276122775
600.0 1300.0 0.013574325248965758
700.0 1300.0 0.013653200819631835
800.0 1300.0 0.013652103271881705
900.0 1300.0 0.00043141843543397396
0.0 1400.0 0.000896546595851063
100.0 1400.0 0.014367561867579417
200.0 1400.0 0.014435864925688045
300.0 1400.0 0.014891923354850073
400.0 1400.0 0.014806193989079149
500.0 1400.0 0.014703888583536698
600.0 1400.0 0.014100226887321158
700.0 1400.0 0.014919482613870542
800.0 1400.0 0.014714241299453925
900.0 1400.0 0.0009988470065678664
0.0 1500.0 0.00014944830465799373
100.0 1500.0 0.015868126056069246
200.0 1500.0 0.015162492934936433
300.0 1500.0 0.015615559564196689
400.0 1500.0 0.015123819982857958
500.0 1500.0 0.015848008229349855
600.0 1500.0 0.01580731895858904
700.0 1500.0 0.015569100738969426
800.0 1500.0 0.015407183295288939
900.0 1500.0 6.916699545513805e-05
0.0 1600.0 0.0006974287731445636
100.0 1600.0 0.01645354268757956
200.0 1600.0 0.016722055598933454
300.0 1600.0 0.016866382326213722
400.0 1600.0 0.016975521504943716
500.0 1600.0 0.016855803342411116
600.0 1600.0 0.016011714084121772
700.0 1600.0 0.0163599780646541
800.0 1600.0 0.01672999056249172
900.0 1600.0 0.00017162967726144053
0.0 1700.0 0.0005210366062041293
100.0 1700.0 0.017054337986925593
200.0 1700.0 0.017199996525229192
300.0 1700.0 0.017018521794210307
400.0 1700.0 0.017793697703345112
500.0 1700.0 0.017223924687995534
600.0 1700.0 0.01734535168066726
700.0 1700.0 0.017928081293419842
800.0 1700.0 0.01770441440329765
900.0 1700.0 3.1838929531307844e-05
0.0 1800.0 0.00016469415649791275
100.0 1800.0 0.01862147840493691
200.0 1800.0 0.01857722858996602
300.0 1800.0 0.01823789282087908
400.0 1800.0 0.018934213997762354
500.0 1800.0 0.018613965955743675
600.0 1800.0 0.018535632802794768
700.0 1800.0 0.018589909977028935
800.0 1800.0 0.018730122036242712
900.0 1800.0 0.00031194499547960183
0.0 1900.0 0.0003982210622160919
100.0 1900.0 0.00020984374897512213
200.0 1900.0 0.00018619300588033617
300.0 1900.0 0.0009443723899839336
400.0 1900.0 0.0007395507950492875
500.0 1900.0 0.000490458808617567
600.0 1900.0 0.00022741462797332325
700.0 1900.0 0.00025435648177039296
800.0 1900.0 5.802916032387562e-05
900.0 1900.0 0.0004344166255581208

CELLS 171 855
4 11 10 0 1
4 12 11 1 2
4 13 12 2 3
4 14 13 3 4
4 15 14 4 5
4 16 15 5 6
4 17 16 6 7
4 18 17 7 8
4 19 18 8 9
4 21 20 10 11
4 22 21 11 12
4 23 22 12 13
4 24 23 13 14
4 25 24 14 15
4 26 25 15 16
4 27 26 16 17
4 28 27 17 18
4 29 28 18 19
4 31 30 20 21
4 32 31 21 22
4 33 32 22 23
4 34 33 23 24
4 35 34 24 25
4 36 35 25 26
4 37 36 26 27
4 38 37 27 28
4 39 38 28 29
4 41 40 30 31
4 42 41 31 32
4 43 42 32 33
4 44 43 33 34
4 45 44 34 35
4 46 45 35 36
4 47 46 36 37
4 48 47 37 38
4 49 48 38 39
4 51 50 40 41
4 52 51 41 42
4 53 52 42 43
4 54 53 43 44
4 55 54 44 45
4 56 55 45 46
4 57 56 46 47
4 58 57 47 48
4 59 58 48 49
4 61 60 50 51
4 62 61 51 52
4 63 62 52 53
4 64 63 53 54
4 65 64 54 55
4 66 65 55 56
4 67 66 56 57
4 68 67 57 58
4 69 68 58 59
4 71 70 60 61
4 72 71 61 62
4 73 72 62 63
4 74 73 63 64
4 75 74 64 65
4 76 75 65 66
4 77 76 66 67
4 78 77 67 68
4 79 78 68 69
4 81 80 70 71
4 82 81 71 72
4 83 82 72 73
4 84 83 73 74
4 85 84 74 75
4 86 85 75 76
4 87 86 76 77
4 88 87 77 78
4 89 88 78 79
4 91 90 80 81
4 92 91 81 82
4 93 92 82 83
4 94 93 83 84
4 95 94 84 85
4 96 95 85 86
4 97 96 86 87
4 98 97 87 88
4 99 98 88 89
4 101 100 90 91
4 102 101 91 92
4 103 102 92 93
4 104 103 93 94
4 105 104 94 95
4 106 105 95 96
4 107 106 96 97
4 108 107 97 98
4 109 108 98 99
4 111 110 100 101
4 112 111 101 102
4 113 112 102 103
4 114 113 103 104
4 115 114 104 105
4 116 115 105 106
4 117 116 106 107
4 118 117 107 108
4 119 118 108 109
4 121 120 110 111
4 122 121 111 112
4 123 122 112 113
4 124 123 113 114
4 125 124 114 115
4 126 125 115 116
4 127 126 116 117
4 128 127 117 118
4 129 128 118 119
4 131 130 120 121
4 132 131 121 122
4 133 132 122 123
4 134 133 123 124
4 135 134 124 125
4 136 135 125 126
4 137 136 126 127
4 138 137 127 128
4 139 138 128 129
4 141 140 130 131
4 142 141 131 132
4 143 142 132 133
4 144 143 133 134
4 145 144 134 135
4 146 145 135 136
4 147 146 136 137
4 148 147 137 138
4 149 148 138 139
4 151 150 140 141
4 152 151 141 142
4 153 152 142 143
4 154 153 143 144
4 155 154 144 145
4 156 155 145 146
4 157 156 146 147
4 158 157 147 148
4 159 158 148 149
4 161 160 150 151
4 162 161 151 152
4 163 162 152 153
4 164 163 153 154
4 165 164 154 155
4 166 165 155 156
4 167 166 156 157
4 168 167 157 158
4 169 168 158 159
4 171 170 160 161
4 172 171 161 162
4 173 172 162 163
4 174 173 163 164
4 175 174 164 165
4 176 175 165 166
4 177 176 166 167
4 178 177 167 168
4 179 178 168 169
4 181 180 170 171
4 182 181 171 172
4 183 182 172 173
4 184 183 173 174
4 185 184 174 175
4 186 185 175 176
4 187 186 176 177
4 188 187 177 178
4 189 188 178 179
4 191 190 180 181
4 192 191 181 182
4 193 192 182 183
4 194 193 183 184
4 195 194 184 185
4 196 195 185 186
4 197 196 186 187
4 198 197 187 188
4 199 198 188 189

CELL_TYPES 171
9
9
9
9
9
9
9
9
9
9
9
9
9
9
9
9
9
9
9
9
9
9
9
9
9
9
9
9
9
9
9
9
9
9
9
9
9
9
9
9
9
9
9
9
9
9
9
9
9
9
9
9
9
9
9
9
9
9
9
9
9
9
9
9
9
9
9
9
9
9
9
9
9
9
9
9
9
9
9
9
9
9
9
9
9
9
9
9
9
9
9
9
9
9
9
9
9
9
9
9
9
9
9
9
9
9
9
9
9
9
9
9
9
9
9
9
9
9
9
9
9
9
9
9
9
9
9
9
9
9
9
9
9
9
9
9
9
9
9
9
9
9
9
9
9
9
9
9
9
9
9
9
9
9
9
9
9
9
9
9
9
9
9
9
9
9
9
9
9
9
9

POINT_DATA 200

SCALARS topographic__elevation float 1
LOOKUP_TABLE default
0.0005488135039273248
0.0007151893663724195
0.0006027633760716439
0.0005448831829968968
0.0004236547993389047
0.0006458941130666561
0.00043758721126269253
0.0008917730007820798
0.0009636627605010292
0.0003834415188257777
0.0007917250380826646
0.0015288949171745902
0.0015680445596539254
0.0019255966387848177
0.001071036058360805
0.0010871292998715586
0.0010202183979310083
0.0018326198443517332
0.0017781567493097864
0.0008700121482468192
0.000978618342232764
0.002799158560228016
0.002461479362712253
0.002780529176146086
0.002118274425946257
0.002639921021392387
0.0021433532873589853
0.00294466891734295
0.002521848318405356
0.0004146619399905236
0.00026455561210462694
0.003774233688924703
0.0034561503324337687
0.0035684339488281864
0.0030187898004615014
0.0036176354970689634
0.0036120957228102926
0.0036169339965786617
0.003943748079268102
0.0006818202991034834
0.000359507900573786
0.004437031956013111
0.004697631195747058
0.004060225471760671
0.004666766715423656
0.00467063786962377
0.004210382561130497
0.004128926297624787
0.004315428351570498
0.0003637107709426226
0.0005701967704178797
0.005438601512573314
0.00598837383816389
0.0051020448107222
0.005208876756088985
0.005161309517911062
0.005653108325325045
0.005253291602879428
0.005466310770597704
0.00024442559200160273
0.0001589695836455197
0.0061103751422635745
0.006656329589228979
0.0061381829514482785
0.006196582361664458
0.006368725170669799
0.006820993229813725
0.006097101275802442
0.0068379449069716
9.609840789396307e-05
0.0009764594650133958
0.007468651201798141
0.007976761088013685
0.007604845519769488
0.0077392635794162135
0.007039187792197399
0.007282806962834103
0.007120196560518069
0.007296140201713103
0.00011872771895424406
0.000317983179393976
0.008414262991223687
0.008064147496678572
0.008692472119177242
0.008566601454231423
0.008265389490966762
0.008523248053246156
0.00809394051114032
0.008575946491746242
0.0009292961975762141
0.0003185689524513237
0.009667410382757138
0.009131797862194254
0.009716327204281883
0.009289406092919663
0.009183191362004045
0.00958651293489959
0.009020107546143685
0.00982894003052974
4.695476192547066e-06
0.0006778165367962301
0.01027000797257821
0.010735194022271799
0.010962188545054303
0.010248753143540422
0.010576157334381931
0.010592041931442892
0.010572251905484
0.010223081635452757
0.000952749011516985
0.00044712537861762736
0.011846408671499433
0.011699479275419443
0.01129743695078282
0.011813797819696341
0.011396505740897256
0.011881103196826216
0.011581272873182629
0.01188173535777958
0.0006925315900777659
0.0007252542798196405
0.012501324383331769
0.012956083634360299
0.012643990199343617
0.012423855048537448
0.012606393214133498
0.012019193198333708
0.012301574816700507
0.01266017353819949
0.00029007760721044406
0.0006180154289988415
0.013428768702075312
0.013135474063940583
0.013298282326048355
0.013569964910695847
0.01359087276122775
0.013574325248965758
0.013653200819631835
0.013652103271881705
0.00043141843543397396
0.000896546595851063
0.014367561867579417
0.014435864925688045
0.014891923354850073
0.014806193989079149
0.014703888583536698
0.014100226887321158
0.014919482613870542
0.014714241299453925
0.0009988470065678664
0.00014944830465799373
0.015868126056069246
0.015162492934936433
0.015615559564196689
0.015123819982857958
0.015848008229349855
0.01580731895858904
0.015569100738969426
0.015407183295288939
6.916699545513805e-05
0.0006974287731445636
0.01645354268757956
0.016722055598933454
0.016866382326213722
0.016975521504943716
0.016855803342411116
0.016011714084121772
0.0163599780646541
0.01672999056249172
0.00017162967726144053
0.0005210366062041293
0.017054337986925593
0.017199996525229192
0.017018521794210307
0.017793697703345112
0.017223924687995534
0.01734535168066726
0.017928081293419842
0.01770441440329765
3.1838929531307844e-05
0.00016469415649791275
0.01862147840493691
0.01857722858996602
0.01823789282087908
0.018934213997762354
0.018613965955743675
0.018535632802794768
0.018589909977028935
0.018730122036242712
0.00031194499547960183
0.0003982210622160919
0.00020984374897512213
0.00018619300588033617
0.0009443723899839336
0.0007395507950492875
0.000490458808617567
0.00022741462797332325
0.00025435648177039296
5.802916032387562e-05
0.0004344166255581208